 Entering Gaussian System, Link 0=g16
 Initial command:
 /home/apps/g16/l1.exe "./Gau-259577.inp" -scrdir="./"
 Entering Link 1 = /home/apps/g16/l1.exe PID=    259578.
  
 Copyright (c) 1988-2017, Gaussian, Inc.  All Rights Reserved.
  
 This is part of the Gaussian(R) 16 program.  It is based on
 the Gaussian(R) 09 system (copyright 2009, Gaussian, Inc.),
 the Gaussian(R) 03 system (copyright 2003, Gaussian, Inc.),
 the Gaussian(R) 98 system (copyright 1998, Gaussian, Inc.),
 the Gaussian(R) 94 system (copyright 1995, Gaussian, Inc.),
 the Gaussian 92(TM) system (copyright 1992, Gaussian, Inc.),
 the Gaussian 90(TM) system (copyright 1990, Gaussian, Inc.),
 the Gaussian 88(TM) system (copyright 1988, Gaussian, Inc.),
 the Gaussian 86(TM) system (copyright 1986, Carnegie Mellon
 University), and the Gaussian 82(TM) system (copyright 1983,
 Carnegie Mellon University). Gaussian is a federally registered
 trademark of Gaussian, Inc.
  
 This software contains proprietary and confidential information,
 including trade secrets, belonging to Gaussian, Inc.
  
 This software is provided under written license and may be
 used, copied, transmitted, or stored only in accord with that
 written license.
  
 The following legend is applicable only to US Government
 contracts under FAR:
  
                    RESTRICTED RIGHTS LEGEND
  
 Use, reproduction and disclosure by the US Government is
 subject to restrictions as set forth in subparagraphs (a)
 and (c) of the Commercial Computer Software - Restricted
 Rights clause in FAR 52.227-19.
  
 Gaussian, Inc.
 340 Quinnipiac St., Bldg. 40, Wallingford CT 06492
  
  
 ---------------------------------------------------------------
 Warning -- This program may not be used in any manner that
 competes with the business of Gaussian, Inc. or will provide
 assistance to any competitor of Gaussian, Inc.  The licensee
 of this program is prohibited from giving any competitor of
 Gaussian, Inc. access to this program.  By using this program,
 the user acknowledges that Gaussian, Inc. is engaged in the
 business of creating and licensing software in the field of
 computational chemistry and represents and warrants to the
 licensee that it is not a competitor of Gaussian, Inc. and that
 it will not use this program in any manner prohibited above.
 ---------------------------------------------------------------
  

 Cite this work as:
 Gaussian 16, Revision B.01,
 M. J. Frisch, G. W. Trucks, H. B. Schlegel, G. E. Scuseria, 
 M. A. Robb, J. R. Cheeseman, G. Scalmani, V. Barone, 
 G. A. Petersson, H. Nakatsuji, X. Li, M. Caricato, A. V. Marenich, 
 J. Bloino, B. G. Janesko, R. Gomperts, B. Mennucci, H. P. Hratchian, 
 J. V. Ortiz, A. F. Izmaylov, J. L. Sonnenberg, D. Williams-Young, 
 F. Ding, F. Lipparini, F. Egidi, J. Goings, B. Peng, A. Petrone, 
 T. Henderson, D. Ranasinghe, V. G. Zakrzewski, J. Gao, N. Rega, 
 G. Zheng, W. Liang, M. Hada, M. Ehara, K. Toyota, R. Fukuda, 
 J. Hasegawa, M. Ishida, T. Nakajima, Y. Honda, O. Kitao, H. Nakai, 
 T. Vreven, K. Throssell, J. A. Montgomery, Jr., J. E. Peralta, 
 F. Ogliaro, M. J. Bearpark, J. J. Heyd, E. N. Brothers, K. N. Kudin, 
 V. N. Staroverov, T. A. Keith, R. Kobayashi, J. Normand, 
 K. Raghavachari, A. P. Rendell, J. C. Burant, S. S. Iyengar, 
 J. Tomasi, M. Cossi, J. M. Millam, M. Klene, C. Adamo, R. Cammi, 
 J. W. Ochterski, R. L. Martin, K. Morokuma, O. Farkas, 
 J. B. Foresman, and D. J. Fox, Gaussian, Inc., Wallingford CT, 2016.
 
 ******************************************
 Gaussian 16:  EM64L-G16RevB.01 20-Dec-2017
                26-Jul-2022 
 ******************************************
 %nprocshared=24
 Will use up to   24 processors via shared memory.
 %mem=2000MW
 %chk=dimersiohts.chk
 ----------------------------------------------------------------------
 # opt=(calcfc,ts,maxcycle=1600) freq wb97xd/6-311++g(d,p) scrf=(cpcm,s
 olvent=water) nosymm scf=maxcycle=800
 ----------------------------------------------------------------------
 1/5=1,6=1600,10=4,18=20,26=3,38=1/1,3;
 2/9=110,12=2,15=1,17=6,18=5,40=1/2;
 3/5=4,6=6,7=1111,11=2,25=1,30=1,70=2101,71=2,72=1,74=-58,140=1/1,2,3;
 4//1;
 5/5=2,7=800,38=5,53=1/2;
 8/6=4,10=90,11=11/1;
 11/6=1,8=1,9=11,15=111,16=1,31=1/1,2,10;
 10/6=1,13=1,31=1/2;
 6/7=2,8=2,9=2,10=2,28=1/1;
 7/10=1,18=20,25=1,30=1/1,2,3,16;
 1/5=1,6=1600,10=4,18=20,26=3/3(2);
 2/9=110,15=1/2;
 99//99;
 2/9=110,15=1/2;
 3/5=4,6=6,7=1111,11=2,25=1,30=1,70=2105,71=1,72=1,74=-58/1,2,3;
 4/5=5,16=3,69=1/1;
 5/5=2,7=800,38=5,53=1/2;
 7/30=1/1,2,3,16;
 1/5=1,6=1600,18=20,26=3/3(-5);
 2/9=110,15=1/2;
 6/7=2,8=2,9=2,10=2,19=2,28=1/1;
 99/9=1/99;
 -----------
 dimersiohts
 -----------
 Symbolic Z-matrix:
 Charge = -1 Multiplicity = 1
 Si                   -4.62094  -0.21661   0. 
 O                    -6.23043  -0.26841  -0.29756 
 O                    -4.4859    0.46589  -1.87819 
 O                    -4.05001   1.26566   0.59933 
 O                    -4.7639   -1.09684   1.51762 
 Ca                   -7.47437   1.61269  -0.83605 
 O                    -7.20725  -1.54882  -2.46501 
 O                    -8.22505   0.19558   1.17755 
 O                    -5.99373   3.02427  -0.00934 
 O                    -6.51523   1.16009  -2.94671 
 H                    -7.36704  -0.20606   0.8432 
 H                    -8.06853   0.48424   2.07793 
 H                    -6.82028  -1.22999  -1.61575 
 H                    -7.09117  -0.75714  -3.00916 
 H                    -4.66331   2.00654   0.36004 
 H                    -5.91094   3.94877   0.21549 
 H                    -5.48837   0.82785  -2.51746 
 H                    -6.38436   1.78389  -3.66087 
 H                    -3.90665  -1.42188   1.79365 
 H                    -3.6852    0.27093  -2.37813 
 Si                   -1.74047  -0.6591   -0.91033 
 O                    -0.58997  -1.73307  -0.60706 
 O                    -1.4361    0.82511  -0.22085 
 O                    -1.80168  -0.38368  -2.57169 
 O                    -3.23067  -1.13415  -0.40406 
 Ca                    0.57093  -2.86122  -2.4111 
 O                     1.96278  -2.02848  -0.46772 
 O                    -0.42165  -4.30799  -0.63042 
 O                    -1.27591  -2.66654  -3.64126 
 O                     0.86338  -0.55448  -3.25858 
 H                    -0.75627  -3.42371  -0.34483 
 H                    -1.18648  -4.86686  -0.77818 
 H                     1.08176  -1.6552   -0.22645 
 H                     2.59294  -1.30654  -0.46773 
 H                    -1.76485  -1.26251  -3.07241 
 H                    -1.93822  -3.25999  -3.99 
 H                    -0.03803  -0.20591  -3.10397 
 H                     1.46942   0.08328  -2.87641 
 H                    -2.26313   1.22507   0.11152 
 
 Add virtual bond connecting atoms H17        and O10        Dist= 2.19D+00.
 Add virtual bond connecting atoms H17        and O3         Dist= 2.35D+00.
 Add virtual bond connecting atoms H13        and O2         Dist= 3.28D+00.

 GradGradGradGradGradGradGradGradGradGradGradGradGradGradGradGradGradGrad
 Berny optimization.
 Initialization pass.
                           ----------------------------
                           !    Initial Parameters    !
                           ! (Angstroms and Degrees)  !
 --------------------------                            --------------------------
 ! Name  Definition              Value          Derivative Info.                !
 --------------------------------------------------------------------------------
 ! R1    R(1,2)                  1.6376         calculate D2E/DX2 analytically  !
 ! R2    R(1,4)                  1.6977         calculate D2E/DX2 analytically  !
 ! R3    R(1,5)                  1.7602         calculate D2E/DX2 analytically  !
 ! R4    R(1,25)                 1.7141         calculate D2E/DX2 analytically  !
 ! R5    R(2,6)                  2.3186         calculate D2E/DX2 analytically  !
 ! R6    R(2,13)                 1.735          calculate D2E/DX2 analytically  !
 ! R7    R(3,17)                 1.2428         calculate D2E/DX2 analytically  !
 ! R8    R(3,20)                 0.9639         calculate D2E/DX2 analytically  !
 ! R9    R(4,15)                 0.9911         calculate D2E/DX2 analytically  !
 ! R10   R(5,19)                 0.9575         calculate D2E/DX2 analytically  !
 ! R11   R(6,8)                  2.5742         calculate D2E/DX2 analytically  !
 ! R12   R(6,9)                  2.2064         calculate D2E/DX2 analytically  !
 ! R13   R(6,10)                 2.3621         calculate D2E/DX2 analytically  !
 ! R14   R(6,11)                 2.4778         calculate D2E/DX2 analytically  !
 ! R15   R(7,13)                 0.9862         calculate D2E/DX2 analytically  !
 ! R16   R(7,14)                 0.9676         calculate D2E/DX2 analytically  !
 ! R17   R(8,11)                 1.0046         calculate D2E/DX2 analytically  !
 ! R18   R(8,12)                 0.9584         calculate D2E/DX2 analytically  !
 ! R19   R(9,16)                 0.955          calculate D2E/DX2 analytically  !
 ! R20   R(10,17)                1.1615         calculate D2E/DX2 analytically  !
 ! R21   R(10,18)                0.9572         calculate D2E/DX2 analytically  !
 ! R22   R(21,22)                1.6028         calculate D2E/DX2 analytically  !
 ! R23   R(21,23)                1.6646         calculate D2E/DX2 analytically  !
 ! R24   R(21,24)                1.6852         calculate D2E/DX2 analytically  !
 ! R25   R(21,25)                1.644          calculate D2E/DX2 analytically  !
 ! R26   R(22,26)                2.4238         calculate D2E/DX2 analytically  !
 ! R27   R(23,39)                0.9769         calculate D2E/DX2 analytically  !
 ! R28   R(24,35)                1.0121         calculate D2E/DX2 analytically  !
 ! R29   R(26,27)                2.5313         calculate D2E/DX2 analytically  !
 ! R30   R(26,28)                2.4998         calculate D2E/DX2 analytically  !
 ! R31   R(26,29)                2.2276         calculate D2E/DX2 analytically  !
 ! R32   R(26,30)                2.4748         calculate D2E/DX2 analytically  !
 ! R33   R(27,33)                0.9868         calculate D2E/DX2 analytically  !
 ! R34   R(27,34)                0.9583         calculate D2E/DX2 analytically  !
 ! R35   R(28,31)                0.9877         calculate D2E/DX2 analytically  !
 ! R36   R(28,32)                0.9587         calculate D2E/DX2 analytically  !
 ! R37   R(29,36)                0.9552         calculate D2E/DX2 analytically  !
 ! R38   R(30,37)                0.9787         calculate D2E/DX2 analytically  !
 ! R39   R(30,38)                0.9592         calculate D2E/DX2 analytically  !
 ! A1    A(2,1,4)              114.9788         calculate D2E/DX2 analytically  !
 ! A2    A(2,1,5)               93.4983         calculate D2E/DX2 analytically  !
 ! A3    A(2,1,25)             137.5117         calculate D2E/DX2 analytically  !
 ! A4    A(4,1,5)               99.1811         calculate D2E/DX2 analytically  !
 ! A5    A(4,1,25)             106.1304         calculate D2E/DX2 analytically  !
 ! A6    A(5,1,25)              90.082          calculate D2E/DX2 analytically  !
 ! A7    A(1,2,6)              122.9453         calculate D2E/DX2 analytically  !
 ! A8    A(1,2,13)             119.3225         calculate D2E/DX2 analytically  !
 ! A9    A(6,2,13)              95.2097         calculate D2E/DX2 analytically  !
 ! A10   A(17,3,20)            117.5277         calculate D2E/DX2 analytically  !
 ! A11   A(1,4,15)             111.0589         calculate D2E/DX2 analytically  !
 ! A12   A(1,5,19)             110.2185         calculate D2E/DX2 analytically  !
 ! A13   A(2,6,8)               61.8453         calculate D2E/DX2 analytically  !
 ! A14   A(2,6,9)               94.1284         calculate D2E/DX2 analytically  !
 ! A15   A(2,6,10)              80.4575         calculate D2E/DX2 analytically  !
 ! A16   A(2,6,11)              39.0888         calculate D2E/DX2 analytically  !
 ! A17   A(8,6,9)              104.7617         calculate D2E/DX2 analytically  !
 ! A18   A(8,6,10)             135.3885         calculate D2E/DX2 analytically  !
 ! A19   A(9,6,10)             100.655          calculate D2E/DX2 analytically  !
 ! A20   A(9,6,11)             100.7542         calculate D2E/DX2 analytically  !
 ! A21   A(10,6,11)            116.5733         calculate D2E/DX2 analytically  !
 ! A22   A(13,7,14)             99.9443         calculate D2E/DX2 analytically  !
 ! A23   A(6,8,12)             121.429          calculate D2E/DX2 analytically  !
 ! A24   A(11,8,12)            107.0731         calculate D2E/DX2 analytically  !
 ! A25   A(6,9,16)             139.9669         calculate D2E/DX2 analytically  !
 ! A26   A(6,10,17)             94.7935         calculate D2E/DX2 analytically  !
 ! A27   A(6,10,18)            126.6765         calculate D2E/DX2 analytically  !
 ! A28   A(17,10,18)           109.9536         calculate D2E/DX2 analytically  !
 ! A29   A(22,21,23)           112.8191         calculate D2E/DX2 analytically  !
 ! A30   A(22,21,24)           108.7916         calculate D2E/DX2 analytically  !
 ! A31   A(22,21,25)           113.5012         calculate D2E/DX2 analytically  !
 ! A32   A(23,21,24)           105.6205         calculate D2E/DX2 analytically  !
 ! A33   A(23,21,25)           107.2075         calculate D2E/DX2 analytically  !
 ! A34   A(24,21,25)           108.5363         calculate D2E/DX2 analytically  !
 ! A35   A(21,22,26)           120.9863         calculate D2E/DX2 analytically  !
 ! A36   A(21,23,39)           110.5586         calculate D2E/DX2 analytically  !
 ! A37   A(21,24,35)           110.151          calculate D2E/DX2 analytically  !
 ! A38   A(1,25,21)            130.7789         calculate D2E/DX2 analytically  !
 ! A39   A(22,26,27)            62.5362         calculate D2E/DX2 analytically  !
 ! A40   A(22,26,28)            63.1938         calculate D2E/DX2 analytically  !
 ! A41   A(22,26,29)            88.4676         calculate D2E/DX2 analytically  !
 ! A42   A(22,26,30)            82.972          calculate D2E/DX2 analytically  !
 ! A43   A(27,26,28)            82.0589         calculate D2E/DX2 analytically  !
 ! A44   A(27,26,29)           148.3327         calculate D2E/DX2 analytically  !
 ! A45   A(27,26,30)            83.7594         calculate D2E/DX2 analytically  !
 ! A46   A(28,26,29)            96.5896         calculate D2E/DX2 analytically  !
 ! A47   A(28,26,30)           146.1278         calculate D2E/DX2 analytically  !
 ! A48   A(29,26,30)            80.061          calculate D2E/DX2 analytically  !
 ! A49   A(26,27,33)            79.7024         calculate D2E/DX2 analytically  !
 ! A50   A(26,27,34)           127.5476         calculate D2E/DX2 analytically  !
 ! A51   A(33,27,34)           107.5859         calculate D2E/DX2 analytically  !
 ! A52   A(26,28,31)            79.766          calculate D2E/DX2 analytically  !
 ! A53   A(26,28,32)           122.9799         calculate D2E/DX2 analytically  !
 ! A54   A(31,28,32)           107.2292         calculate D2E/DX2 analytically  !
 ! A55   A(26,29,36)           136.2346         calculate D2E/DX2 analytically  !
 ! A56   A(26,30,37)            99.7311         calculate D2E/DX2 analytically  !
 ! A57   A(26,30,38)           123.9134         calculate D2E/DX2 analytically  !
 ! A58   A(37,30,38)           106.3895         calculate D2E/DX2 analytically  !
 ! A59   L(2,13,7,10,-1)       165.994          calculate D2E/DX2 analytically  !
 ! A60   L(3,17,10,2,-1)       171.1614         calculate D2E/DX2 analytically  !
 ! A61   L(2,13,7,10,-2)       184.7988         calculate D2E/DX2 analytically  !
 ! A62   L(3,17,10,2,-2)       176.6093         calculate D2E/DX2 analytically  !
 ! D1    D(4,1,2,6)             27.3615         calculate D2E/DX2 analytically  !
 ! D2    D(4,1,2,13)           146.5777         calculate D2E/DX2 analytically  !
 ! D3    D(5,1,2,6)            129.1809         calculate D2E/DX2 analytically  !
 ! D4    D(5,1,2,13)          -111.6029         calculate D2E/DX2 analytically  !
 ! D5    D(25,1,2,6)          -136.8704         calculate D2E/DX2 analytically  !
 ! D6    D(25,1,2,13)          -17.6542         calculate D2E/DX2 analytically  !
 ! D7    D(2,1,4,15)           -22.7432         calculate D2E/DX2 analytically  !
 ! D8    D(5,1,4,15)          -120.9926         calculate D2E/DX2 analytically  !
 ! D9    D(25,1,4,15)          146.2416         calculate D2E/DX2 analytically  !
 ! D10   D(2,1,5,19)           164.0426         calculate D2E/DX2 analytically  !
 ! D11   D(4,1,5,19)           -79.9528         calculate D2E/DX2 analytically  !
 ! D12   D(25,1,5,19)           26.4066         calculate D2E/DX2 analytically  !
 ! D13   D(2,1,25,21)          135.1261         calculate D2E/DX2 analytically  !
 ! D14   D(4,1,25,21)          -30.0161         calculate D2E/DX2 analytically  !
 ! D15   D(5,1,25,21)         -129.601          calculate D2E/DX2 analytically  !
 ! D16   D(1,2,6,8)           -124.4463         calculate D2E/DX2 analytically  !
 ! D17   D(1,2,6,9)            -19.9026         calculate D2E/DX2 analytically  !
 ! D18   D(1,2,6,10)            80.2251         calculate D2E/DX2 analytically  !
 ! D19   D(1,2,6,11)          -121.8995         calculate D2E/DX2 analytically  !
 ! D20   D(13,2,6,8)           105.3822         calculate D2E/DX2 analytically  !
 ! D21   D(13,2,6,9)          -150.0741         calculate D2E/DX2 analytically  !
 ! D22   D(13,2,6,10)          -49.9464         calculate D2E/DX2 analytically  !
 ! D23   D(13,2,6,11)          107.929          calculate D2E/DX2 analytically  !
 ! D24   D(1,2,7,14)           -86.5211         calculate D2E/DX2 analytically  !
 ! D25   D(6,2,7,14)            43.0924         calculate D2E/DX2 analytically  !
 ! D26   D(20,3,10,6)         -171.8951         calculate D2E/DX2 analytically  !
 ! D27   D(20,3,10,18)         -41.058          calculate D2E/DX2 analytically  !
 ! D28   D(2,6,8,12)           104.2036         calculate D2E/DX2 analytically  !
 ! D29   D(9,6,8,12)            17.447          calculate D2E/DX2 analytically  !
 ! D30   D(10,6,8,12)          140.0865         calculate D2E/DX2 analytically  !
 ! D31   D(2,6,9,16)          -168.6728         calculate D2E/DX2 analytically  !
 ! D32   D(8,6,9,16)          -106.7208         calculate D2E/DX2 analytically  !
 ! D33   D(10,6,9,16)          110.2757         calculate D2E/DX2 analytically  !
 ! D34   D(11,6,9,16)         -129.7864         calculate D2E/DX2 analytically  !
 ! D35   D(2,6,10,17)          -37.6223         calculate D2E/DX2 analytically  !
 ! D36   D(2,6,10,18)         -156.9264         calculate D2E/DX2 analytically  !
 ! D37   D(8,6,10,17)          -69.2251         calculate D2E/DX2 analytically  !
 ! D38   D(8,6,10,18)          171.4708         calculate D2E/DX2 analytically  !
 ! D39   D(9,6,10,17)           54.8224         calculate D2E/DX2 analytically  !
 ! D40   D(9,6,10,18)          -64.4817         calculate D2E/DX2 analytically  !
 ! D41   D(11,6,10,17)         -53.02           calculate D2E/DX2 analytically  !
 ! D42   D(11,6,10,18)        -172.3241         calculate D2E/DX2 analytically  !
 ! D43   D(23,21,22,26)       -123.4921         calculate D2E/DX2 analytically  !
 ! D44   D(24,21,22,26)         -6.6366         calculate D2E/DX2 analytically  !
 ! D45   D(25,21,22,26)        114.3033         calculate D2E/DX2 analytically  !
 ! D46   D(22,21,23,39)       -142.1435         calculate D2E/DX2 analytically  !
 ! D47   D(24,21,23,39)         99.1372         calculate D2E/DX2 analytically  !
 ! D48   D(25,21,23,39)        -16.4671         calculate D2E/DX2 analytically  !
 ! D49   D(22,21,24,35)         45.287          calculate D2E/DX2 analytically  !
 ! D50   D(23,21,24,35)        166.653          calculate D2E/DX2 analytically  !
 ! D51   D(25,21,24,35)        -78.6554         calculate D2E/DX2 analytically  !
 ! D52   D(22,21,25,1)         156.2937         calculate D2E/DX2 analytically  !
 ! D53   D(23,21,25,1)          31.0269         calculate D2E/DX2 analytically  !
 ! D54   D(24,21,25,1)         -82.623          calculate D2E/DX2 analytically  !
 ! D55   D(21,22,26,27)        137.0693         calculate D2E/DX2 analytically  !
 ! D56   D(21,22,26,28)       -127.8722         calculate D2E/DX2 analytically  !
 ! D57   D(21,22,26,29)        -29.7007         calculate D2E/DX2 analytically  !
 ! D58   D(21,22,26,30)         50.4724         calculate D2E/DX2 analytically  !
 ! D59   D(22,26,27,33)         -6.0745         calculate D2E/DX2 analytically  !
 ! D60   D(22,26,27,34)       -110.4137         calculate D2E/DX2 analytically  !
 ! D61   D(28,26,27,33)        -69.9279         calculate D2E/DX2 analytically  !
 ! D62   D(28,26,27,34)       -174.267          calculate D2E/DX2 analytically  !
 ! D63   D(29,26,27,33)         19.7605         calculate D2E/DX2 analytically  !
 ! D64   D(29,26,27,34)        -84.5787         calculate D2E/DX2 analytically  !
 ! D65   D(30,26,27,33)         79.2288         calculate D2E/DX2 analytically  !
 ! D66   D(30,26,27,34)        -25.1103         calculate D2E/DX2 analytically  !
 ! D67   D(22,26,28,31)          5.4759         calculate D2E/DX2 analytically  !
 ! D68   D(22,26,28,32)        109.4596         calculate D2E/DX2 analytically  !
 ! D69   D(27,26,28,31)         68.6528         calculate D2E/DX2 analytically  !
 ! D70   D(27,26,28,32)        172.6365         calculate D2E/DX2 analytically  !
 ! D71   D(29,26,28,31)        -79.4451         calculate D2E/DX2 analytically  !
 ! D72   D(29,26,28,32)         24.5386         calculate D2E/DX2 analytically  !
 ! D73   D(30,26,28,31)          2.5273         calculate D2E/DX2 analytically  !
 ! D74   D(30,26,28,32)        106.5109         calculate D2E/DX2 analytically  !
 ! D75   D(22,26,29,36)       -111.0287         calculate D2E/DX2 analytically  !
 ! D76   D(27,26,29,36)       -133.7847         calculate D2E/DX2 analytically  !
 ! D77   D(28,26,29,36)        -48.2369         calculate D2E/DX2 analytically  !
 ! D78   D(30,26,29,36)        165.8389         calculate D2E/DX2 analytically  !
 ! D79   D(22,26,30,37)        -43.9914         calculate D2E/DX2 analytically  !
 ! D80   D(22,26,30,38)         73.4129         calculate D2E/DX2 analytically  !
 ! D81   D(27,26,30,37)       -106.9928         calculate D2E/DX2 analytically  !
 ! D82   D(27,26,30,38)         10.4115         calculate D2E/DX2 analytically  !
 ! D83   D(28,26,30,37)        -41.3399         calculate D2E/DX2 analytically  !
 ! D84   D(28,26,30,38)         76.0643         calculate D2E/DX2 analytically  !
 ! D85   D(29,26,30,37)         45.6791         calculate D2E/DX2 analytically  !
 ! D86   D(29,26,30,38)        163.0833         calculate D2E/DX2 analytically  !
 --------------------------------------------------------------------------------
 Trust Radius=3.00D-01 FncErr=1.00D-07 GrdErr=1.00D-06 EigMax=2.50D+02 EigMin=1.00D-04
 Number of steps in this run=    234 maximum allowed number of steps=    234.
 Search for a saddle point of order  1.
 GradGradGradGradGradGradGradGradGradGradGradGradGradGradGradGradGradGrad

                          Input orientation:                          
 ---------------------------------------------------------------------
 Center     Atomic      Atomic             Coordinates (Angstroms)
 Number     Number       Type             X           Y           Z
 ---------------------------------------------------------------------
      1         14           0       -4.620938   -0.216606    0.000000
      2          8           0       -6.230429   -0.268409   -0.297559
      3          8           0       -4.485895    0.465888   -1.878194
      4          8           0       -4.050012    1.265665    0.599326
      5          8           0       -4.763900   -1.096839    1.517619
      6         20           0       -7.474373    1.612694   -0.836051
      7          8           0       -7.207254   -1.548819   -2.465006
      8          8           0       -8.225054    0.195576    1.177548
      9          8           0       -5.993727    3.024267   -0.009335
     10          8           0       -6.515228    1.160089   -2.946709
     11          1           0       -7.367043   -0.206057    0.843198
     12          1           0       -8.068526    0.484245    2.077934
     13          1           0       -6.820275   -1.229994   -1.615746
     14          1           0       -7.091171   -0.757142   -3.009161
     15          1           0       -4.663314    2.006542    0.360035
     16          1           0       -5.910940    3.948770    0.215489
     17          1           0       -5.488374    0.827855   -2.517457
     18          1           0       -6.384355    1.783888   -3.660872
     19          1           0       -3.906648   -1.421875    1.793646
     20          1           0       -3.685201    0.270927   -2.378127
     21         14           0       -1.740465   -0.659104   -0.910326
     22          8           0       -0.589974   -1.733071   -0.607058
     23          8           0       -1.436099    0.825110   -0.220848
     24          8           0       -1.801675   -0.383679   -2.571694
     25          8           0       -3.230671   -1.134146   -0.404061
     26         20           0        0.570933   -2.861220   -2.411095
     27          8           0        1.962776   -2.028476   -0.467720
     28          8           0       -0.421648   -4.307987   -0.630420
     29          8           0       -1.275909   -2.666542   -3.641255
     30          8           0        0.863376   -0.554475   -3.258581
     31          1           0       -0.756273   -3.423711   -0.344833
     32          1           0       -1.186476   -4.866855   -0.778183
     33          1           0        1.081763   -1.655201   -0.226450
     34          1           0        2.592939   -1.306536   -0.467730
     35          1           0       -1.764849   -1.262505   -3.072412
     36          1           0       -1.938219   -3.259986   -3.990000
     37          1           0       -0.038030   -0.205907   -3.103969
     38          1           0        1.469419    0.083279   -2.876405
     39          1           0       -2.263126    1.225071    0.111522
 ---------------------------------------------------------------------
                    Distance matrix (angstroms):
                    1          2          3          4          5
     1  Si   0.000000
     2  O    1.637585   0.000000
     3  O    2.002910   2.465968   0.000000
     4  O    1.697727   2.812828   2.639648   0.000000
     5  O    1.760232   2.476262   3.748459   2.633310   0.000000
     6  Ca   3.491047   2.318603   3.366337   3.729207   4.497554
     7  O    3.813145   2.700271   3.436450   5.222990   4.694206
     8  O    3.813944   2.523837   4.836521   4.348610   3.710198
     9  O    3.519644   3.313731   3.508774   2.690944   4.563724
    10  O    3.763870   3.023196   2.396212   4.320046   5.300104
    11  H    2.872662   1.611554   4.019763   3.637050   2.832788
    12  H    4.085935   3.096459   5.337277   4.352626   3.705986
    13  H    2.911129   1.734987   2.897279   4.336959   3.750251
    14  H    3.930557   2.886611   3.092305   5.134352   5.101306
    15  H    2.252511   2.839662   2.723006   0.991110   3.313773
    16  H    4.365879   4.260269   4.306359   3.287771   5.335674
    17  H    2.860233   2.584645   1.242836   3.460477   4.528923
    18  H    4.529194   3.943031   2.918769   4.885386   6.143389
    19  H    2.275972   3.332204   4.169123   2.944457   0.957455
    20  H    2.601688   3.331341   0.963874   3.160351   4.267460
    21  Si   3.053133   4.548396   3.120859   3.364193   3.902267
    22  O    4.349351   5.835731   4.650743   4.734939   4.726595
    23  O    3.358146   4.918055   3.489569   2.774764   4.217869
    24  O    3.819655   4.979843   2.899611   4.222644   5.099594
    25  O    1.714056   3.124002   2.511725   2.727123   2.458666
    26  Ca   6.305782   7.579461   6.076606   6.888174   6.856258
    27  O    6.844481   8.381849   7.056674   6.938557   7.075146
    28  O    5.896682   7.083144   6.392568   6.763350   5.812116
    29  O    5.518165   6.440389   4.819182   6.414080   6.422151
    30  O    6.388287   7.692305   5.617945   6.506746   7.400843
    31  H    5.033892   6.318588   5.602701   5.807788   4.994410
    32  H    5.833174   6.842380   6.366658   6.906893   5.681698
    33  H    5.885714   7.442876   6.182725   5.962255   6.125791
    34  H    7.310728   8.885859   7.432415   7.203029   7.622904
    35  H    4.323293   5.350649   3.437672   5.009518   5.485448
    36  H    5.690276   6.403649   4.983223   6.782558   6.557251
    37  H    5.535141   6.798945   4.662332   5.654725   6.669834
    38  H    6.742113   8.127840   6.050502   6.628941   7.717149
    39  H    2.765890   4.258794   3.078316   1.852718   3.690833
                    6          7          8          9         10
     6  Ca   0.000000
     7  O    3.566512   0.000000
     8  O    2.574165   4.164977   0.000000
     9  O    2.206425   5.330674   3.793284   0.000000
    10  O    2.362136   2.837097   4.567635   3.517853   0.000000
    11  H    2.477751   3.573899   1.004630   3.612174   4.117686
    12  H    3.180837   5.051083   0.958397   3.887569   5.302503
    13  H    3.019378   0.986227   3.436298   4.621956   2.752637
    14  H    3.238113   0.967643   4.440934   4.949989   2.002844
    15  H    3.080226   5.205101   4.078470   1.715283   3.883378
    16  H    3.001218   6.252117   4.512997   0.955042   4.259272
    17  H    2.717957   2.933578   4.641364   3.371985   1.161493
    18  H    3.032666   3.635133   5.414907   3.876190   0.957226
    19  H    5.371459   5.389456   4.652349   5.232095   5.995181
    20  H    4.305364   3.965335   5.767042   4.303644   3.020422
    21  Si   6.168005   5.752774   6.865828   5.698179   5.500425
    22  O    7.657776   6.875632   8.074586   7.224270   6.996640
    23  O    6.120418   6.631592   6.960010   5.064879   5.774087
    24  O    6.259190   5.530752   7.460037   5.979388   4.974077
    25  O    5.073534   4.498073   5.404952   5.008262   4.745196
    26  Ca   9.339359   7.888314   9.979567   9.137952   8.165261
    27  O   10.121935   9.397269  10.556761   9.436433   9.390894
    28  O    9.210737   7.551368   9.189340   9.230155   8.508629
    29  O    8.037536   6.149286   8.927665   8.236137   6.525026
    30  O    8.948929   8.170285  10.141074   8.389568   7.581609
    31  H    8.410680   7.044538   8.437984   8.313838   7.806827
    32  H    9.029150   7.078453   8.887895   9.272033   8.331996
    33  H    9.179227   8.586632   9.592363   8.485701   8.546341
    34  H   10.488486  10.004579  11.045010   9.627918   9.756448
    35  H    6.772499   5.483675   7.869079   6.755906   5.333935
    36  H    8.021185   5.745992   8.841310   8.472584   6.447831
    37  H    7.984357   7.321848   9.247699   7.448564   6.621538
    38  H    9.300192   8.838419  10.508566   8.518688   8.057236
    39  H    5.310861   6.227147   6.143359   4.143561   5.238069
                   11         12         13         14         15
    11  H    0.000000
    12  H    1.578977   0.000000
    13  H    2.719156   4.259110   0.000000
    14  H    3.901342   5.326800   1.496188   0.000000
    15  H    3.526924   4.106584   4.362494   4.988379   0.000000
    16  H    4.447116   4.486292   5.567756   5.825540   2.312945
    17  H    3.986524   5.281370   2.611855   2.307151   3.217140
    18  H    5.021175   6.120408   3.668249   2.716827   4.379412
    19  H    3.788918   4.586430   4.488875   5.800863   3.792338
    20  H    4.915324   6.254240   3.558466   3.613276   3.386236
    21  Si   5.910878   7.090931   5.160233   5.748458   4.154820
    22  O    7.096737   8.249510   6.331444   6.999150   5.613562
    23  O    6.113231   7.027779   5.929464   6.500619   3.485416
    24  O    6.531949   7.851481   5.178458   5.320679   4.743118
    25  O    4.418889   5.673123   3.789805   4.672487   3.535566
    26  Ca   8.980633  10.294842   7.610745   7.968228   7.666264
    27  O    9.596105  10.649936   8.893679   9.489424   7.802026
    28  O    8.199749   9.422070   7.168496   7.921455   7.671115
    29  O    7.954006   9.422114   6.075060   6.153261   7.023001
    30  O    9.202488  10.456395   7.886300   7.961037   7.085019
    31  H    7.447617   8.637764   6.572650   7.371578   6.726772
    32  H    7.908939   9.173565   6.757807   7.532093   7.786368
    33  H    8.638662   9.675495   8.034497   8.680256   6.837999
    34  H   10.105980  11.106491   9.483269  10.027098   8.019656
    35  H    6.916116   8.325476   5.261204   5.350617   5.556029
    36  H    7.884061   9.403178   5.795897   5.811987   7.354268
    37  H    8.324335   9.582134   7.018718   7.075284   6.187690
    38  H    9.591779  10.755401   8.487224   8.602769   7.196103
    39  H    5.351023   6.173999   5.456959   6.080941   2.536407
                   16         17         18         19         20
    16  H    0.000000
    17  H    4.169852   0.000000
    18  H    4.465088   1.739017   0.000000
    19  H    5.945721   5.113585   6.794683   0.000000
    20  H    5.020686   1.892357   3.349615   4.507583   0.000000
    21  Si   6.316077   4.340592   5.924477   3.547624   2.607949
    22  O    7.827680   5.848272   7.434355   4.106160   4.090614
    23  O    5.474655   4.657827   6.102316   3.900095   3.165349
    24  O    6.589732   3.881044   5.185134   4.956305   2.003409
    25  O    5.779595   3.662392   5.391425   2.317250   2.465312
    26  Ca   9.761638   7.094772   8.456654   6.308747   5.284516
    27  O    9.909069   8.238913   9.716220   6.319168   6.390348
    28  O    9.950976   7.457177   9.047014   5.133319   5.888269
    29  O    8.950997   5.587360   6.775170   6.165074   4.003611
    30  O    8.845323   6.542540   7.626230   7.002179   4.705958
    31  H    9.013214   6.722268   8.354071   4.301779   5.134516
    32  H   10.051029   7.345823   8.919654   5.087389   5.932980
    33  H    8.972051   7.387894   8.908732   5.386973   5.573475
    34  H   10.020029   8.606081  10.016920   6.882714   6.749300
    35  H    7.426826   4.306068   5.564767   5.318949   2.553663
    36  H    9.243095   5.610920   6.731799   6.379963   4.256457
    37  H    7.922829   5.578433   6.674224   6.358570   3.749143
    38  H    8.886593   7.006720   8.073984   7.278527   5.182046
    39  H    4.553668   4.179897   5.614959   3.540767   3.021761
                   21         22         23         24         25
    21  Si   0.000000
    22  O    1.602812   0.000000
    23  O    1.664605   2.722017   0.000000
    24  O    1.685156   2.673738   2.668575   0.000000
    25  O    1.643984   2.715364   2.663220   2.702566   0.000000
    26  Ca   3.527631   2.423835   4.734384   3.434133   4.632835
    27  O    3.973043   2.573560   4.444800   4.615534   5.270272
    28  O    3.889984   2.580518   5.248385   4.590557   4.244422
    29  O    3.421051   3.247803   4.890448   2.575239   4.080289
    30  O    3.507882   3.245287   4.051995   2.757441   5.024492
    31  H    2.988556   1.718919   4.304650   3.910699   3.371685
    32  H    4.246120   3.194636   5.724631   4.867650   4.272215
    33  H    3.069995   1.716284   3.534346   3.928251   4.347428
    34  H    4.403799   3.214386   4.564867   4.958927   5.826509
    35  H    2.244839   2.771233   3.549314   1.012131   3.047164
    36  H    4.035850   3.948864   5.580918   3.209888   4.364469
    37  H    2.813493   2.978496   3.366004   1.850774   4.283000
    38  H    3.836659   3.562325   4.005538   3.318276   5.448436
    39  H    2.206233   3.473672   0.976940   3.162382   2.601514
                   26         27         28         29         30
    26  Ca   0.000000
    27  O    2.531283   0.000000
    28  O    2.499831   3.302744   0.000000
    29  O    2.227559   4.579032   3.534011   0.000000
    30  O    2.474839   3.342195   4.758925   3.030480   0.000000
    31  H    2.519387   3.058596   0.987663   3.421947   4.398375
    32  H    3.126893   4.250949   0.958712   3.612002   5.380603
    33  H    2.547175   0.986777   3.075827   4.271103   3.233127
    34  H    3.206590   0.958281   4.257101   5.185447   3.368358
    35  H    2.906735   4.611542   4.128253   1.591843   2.728284
    36  H    2.991287   5.398225   3.832111   0.955224   3.962789
    37  H    2.810978   3.778199   4.805483   2.806376   0.978743
    38  H    3.113497   3.241091   5.282405   3.960219   0.959206
    39  H    5.576133   5.364638   5.878456   5.495688   4.929441
                   31         32         33         34         35
    31  H    0.000000
    32  H    1.567014   0.000000
    33  H    2.553433   3.970395   0.000000
    34  H    3.964184   5.201560   1.569534   0.000000
    35  H    3.623220   4.311536   4.044368   5.077068   0.000000
    36  H    3.835498   3.669184   5.085266   6.062487   2.204984
    37  H    4.299182   5.334102   3.410939   3.883702   2.024673
    38  H    4.864313   5.996677   3.192938   2.999266   3.508567
    39  H    4.908161   6.249985   4.427016   5.506899   4.071087
                   36         37         38         39
    36  H    0.000000
    37  H    3.704479   0.000000
    38  H    4.901991   1.551714   0.000000
    39  H    6.086360   4.163908   4.915617   0.000000
 Symmetry turned off by external request.
 Stoichiometry    Ca2H19O16Si2(1-)
 Framework group  C1[X(Ca2H19O16Si2)]
 Deg. of freedom   111
 Full point group                 C1      NOp   1
 Rotational constants (GHZ):           0.4030942           0.0975506           0.0959083
 Standard basis: 6-311++G(d,p) (5D, 7F)
   631 basis functions,   997 primitive gaussians,   653 cartesian basis functions
   108 alpha electrons      108 beta electrons
       nuclear repulsion energy      2945.3206973703 Hartrees.
 NAtoms=   39 NActive=   39 NUniq=   39 SFac= 1.00D+00 NAtFMM=   60 NAOKFM=F Big=F
 Integral buffers will be    131072 words long.
 Raffenetti 2 integral format.
 Two-electron integral symmetry is turned off.
 Nuclear repulsion after empirical dispersion term =     2945.2875421973 Hartrees.
 Force inversion solution in PCM.
 ------------------------------------------------------------------------------
 Polarizable Continuum Model (PCM)
 =================================
 Model                : C-PCM.
 Atomic radii         : UFF (Universal Force Field).
 Polarization charges : Total charges.
 Charge compensation  : None.
 Solution method      : Matrix inversion.
 Cavity type          : Scaled VdW (van der Waals Surface) (Alpha=1.100).
 Cavity algorithm     : GePol (No added spheres)
                        Default sphere list used, NSphG=   39.
                        Lebedev-Laikov grids with approx.  5.0 points / Ang**2.
                        Smoothing algorithm: York/Karplus (Gamma=1.0000).
                        Polarization charges: spherical gaussians, with
                                              point-specific exponents (IZeta= 3).
                        Self-potential: point-specific (ISelfS= 7).
                        Self-field    : sphere-specific E.n sum rule (ISelfD= 2).
 1st derivatives      : Analytical E(r).r(x)/FMM algorithm (CHGder, D1EAlg=3).
                        Cavity 1st derivative terms included.
 2nd derivatives      : Analytical E(r).r(xy)/FMM algorithm (CHGder, D2EAlg=3).
                        Cavity 2nd derivative terms included.
 Solvent              : Water, Eps=  78.355300 Eps(inf)=   1.777849
 ------------------------------------------------------------------------------
 One-electron integrals computed using PRISM.
 NBasis=   631 RedAO= T EigKep=  5.60D-05  NBF=   631
 NBsUse=   631 1.00D-06 EigRej= -1.00D+00 NBFU=   631
 ExpMin= 7.10D-03 ExpMax= 2.03D+05 ExpMxC= 6.92D+03 IAcc=3 IRadAn=         5 AccDes= 0.00D+00
 Harris functional with IExCor= 4639 and IRadAn=       5 diagonalized for initial guess.
 HarFok:  IExCor= 4639 AccDes= 0.00D+00 IRadAn=         5 IDoV= 1 UseB2=F ITyADJ=14
 ICtDFT=  3500011 ScaDFX=  1.000000  1.000000  1.000000  1.000000
 FoFCou: FMM=F IPFlag=           0 FMFlag=      100000 FMFlg1=           0
         NFxFlg=           0 DoJE=T BraDBF=F KetDBF=T FulRan=T
         wScrn=  0.000000 ICntrl=       500 IOpCl=  0 I1Cent=   200000004 NGrid=           0
         NMat0=    1 NMatS0=      1 NMatT0=    0 NMatD0=    1 NMtDS0=    0 NMtDT0=    0
 Symmetry not used in FoFCou.
 Requested convergence on RMS density matrix=1.00D-08 within 800 cycles.
 Requested convergence on MAX density matrix=1.00D-06.
 Requested convergence on             energy=1.00D-06.
 No special actions if energy rises.
 Inv3:  Mode=1 IEnd=    33607227.
 Iteration    1 A*A^-1 deviation from unit magnitude is 9.55D-15 for    577.
 Iteration    1 A*A^-1 deviation from orthogonality  is 5.33D-15 for   2106   1092.
 Iteration    1 A^-1*A deviation from unit magnitude is 9.55D-15 for    577.
 Iteration    1 A^-1*A deviation from orthogonality  is 4.77D-15 for   2106   1092.
 Error on total polarization charges =  0.02427
 SCF Done:  E(RwB97XD) =  -3150.31179312     A.U. after   14 cycles
            NFock= 14  Conv=0.38D-08     -V/T= 2.0022
 DoSCS=F DFT=T ScalE2(SS,OS)=  1.000000  1.000000
 Range of M.O.s used for correlation:     1   631
 NBasis=   631 NAE=   108 NBE=   108 NFC=     0 NFV=     0
 NROrb=    631 NOA=   108 NOB=   108 NVA=   523 NVB=   523

 **** Warning!!: The largest alpha MO coefficient is  0.25330362D+02

 Symmetrizing basis deriv contribution to polar:
 IMax=3 JMax=2 DiffMx= 0.00D+00
 G2DrvN: will do    40 centers at a time, making    1 passes.
 Calling FoFCou, ICntrl=  3107 FMM=F I1Cent=   0 AccDes= 0.00D+00.
 NEqPCM:  Using equilibrium solvation (IEInf=0, Eps=  78.3553, EpsInf=   1.7778)
 G2PCM: DoFxE=T DoFxN=T DoGrad=T DoDP/DQ/DG/TGxP=FFFF NFrqRd=   0 IEInf=0 SqF1=F DoCFld=F IF1Alg=4.
 End of G2Drv F.D. properties file   721 does not exist.
 End of G2Drv F.D. properties file   722 does not exist.
 End of G2Drv F.D. properties file   788 does not exist.
          IDoAtm=111111111111111111111111111111111111111
 NEqPCM:  Using equilibrium solvation (IEInf=0, Eps=  78.3553, EpsInf=   1.7778)
          Differentiating once with respect to nuclear coordinates.
 CalDSu exits because no D1Ps are significant.
          There are   120 degrees of freedom in the 1st order CPHF.  IDoFFX=6 NUNeed=     0.
    114 vectors produced by pass  0 Test12= 5.65D-14 1.00D-09 XBig12= 1.40D-01 3.98D-02.
 AX will form   114 AO Fock derivatives at one time.
    114 vectors produced by pass  1 Test12= 5.65D-14 1.00D-09 XBig12= 4.80D-02 1.84D-02.
    114 vectors produced by pass  2 Test12= 5.65D-14 1.00D-09 XBig12= 8.66D-04 2.48D-03.
    114 vectors produced by pass  3 Test12= 5.65D-14 1.00D-09 XBig12= 1.12D-05 2.57D-04.
    114 vectors produced by pass  4 Test12= 5.65D-14 1.00D-09 XBig12= 1.28D-07 2.26D-05.
    114 vectors produced by pass  5 Test12= 5.65D-14 1.00D-09 XBig12= 1.23D-09 2.24D-06.
    114 vectors produced by pass  6 Test12= 5.65D-14 1.00D-09 XBig12= 1.07D-11 1.97D-07.
     58 vectors produced by pass  7 Test12= 5.65D-14 1.00D-09 XBig12= 8.26D-14 2.44D-08.
      5 vectors produced by pass  8 Test12= 5.65D-14 1.00D-09 XBig12= 6.13D-16 2.93D-09.
 InvSVY:  IOpt=1 It=  1 EMax= 9.44D-16
 Solved reduced A of dimension   861 with   120 vectors.
 End of Minotr F.D. properties file   721 does not exist.
 End of Minotr F.D. properties file   722 does not exist.
 End of Minotr F.D. properties file   788 does not exist.

 **********************************************************************

            Population analysis using the SCF Density.

 **********************************************************************

 Alpha  occ. eigenvalues -- -145.48296-145.46767 -66.28218 -66.27460 -19.26223
 Alpha  occ. eigenvalues --  -19.25214 -19.25116 -19.23652 -19.21485 -19.21372
 Alpha  occ. eigenvalues --  -19.20819 -19.20644 -19.19830 -19.19221 -19.18960
 Alpha  occ. eigenvalues --  -19.18464 -19.17487 -19.16821 -19.16146 -19.15315
 Alpha  occ. eigenvalues --  -15.47862 -15.46315 -12.59775 -12.59764 -12.59716
 Alpha  occ. eigenvalues --  -12.58224 -12.58208 -12.58186  -5.40123  -5.40088
 Alpha  occ. eigenvalues --   -3.74774  -3.74655  -3.74651  -3.74606  -3.74542
 Alpha  occ. eigenvalues --   -3.74495  -1.82920  -1.81479  -1.13456  -1.12741
 Alpha  occ. eigenvalues --   -1.12115  -1.10878  -1.10100  -1.09704  -1.09212
 Alpha  occ. eigenvalues --   -1.09194  -1.08810  -1.08750  -1.07972  -1.07360
 Alpha  occ. eigenvalues --   -1.06683  -1.06309  -1.05431  -1.03931  -1.02959
 Alpha  occ. eigenvalues --   -1.01961  -0.99516  -0.99006  -0.98086  -0.97109
 Alpha  occ. eigenvalues --   -0.64586  -0.63908  -0.62883  -0.62567  -0.61585
 Alpha  occ. eigenvalues --   -0.61046  -0.59536  -0.57417  -0.56626  -0.55257
 Alpha  occ. eigenvalues --   -0.53994  -0.53060  -0.51167  -0.50005  -0.49881
 Alpha  occ. eigenvalues --   -0.49267  -0.48887  -0.48486  -0.47905  -0.46787
 Alpha  occ. eigenvalues --   -0.46493  -0.46031  -0.44975  -0.44089  -0.43353
 Alpha  occ. eigenvalues --   -0.42693  -0.42441  -0.41721  -0.41370  -0.40957
 Alpha  occ. eigenvalues --   -0.40456  -0.40042  -0.39275  -0.38823  -0.38387
 Alpha  occ. eigenvalues --   -0.37258  -0.36712  -0.36389  -0.36048  -0.35815
 Alpha  occ. eigenvalues --   -0.34961  -0.34602  -0.34186  -0.33979  -0.33863
 Alpha  occ. eigenvalues --   -0.33658  -0.33076  -0.32423
 Alpha virt. eigenvalues --    0.01473   0.01582   0.01973   0.01992   0.02360
 Alpha virt. eigenvalues --    0.02377   0.02465   0.03349   0.05467   0.05679
 Alpha virt. eigenvalues --    0.06682   0.06852   0.07021   0.07223   0.07309
 Alpha virt. eigenvalues --    0.07633   0.08098   0.08303   0.08617   0.08885
 Alpha virt. eigenvalues --    0.09345   0.10235   0.10331   0.10660   0.10829
 Alpha virt. eigenvalues --    0.11536   0.12247   0.12325   0.12862   0.13231
 Alpha virt. eigenvalues --    0.13474   0.14141   0.14218   0.14431   0.15103
 Alpha virt. eigenvalues --    0.15778   0.15920   0.16985   0.17123   0.17343
 Alpha virt. eigenvalues --    0.17647   0.17927   0.18144   0.18417   0.18728
 Alpha virt. eigenvalues --    0.19016   0.19089   0.19516   0.19883   0.20555
 Alpha virt. eigenvalues --    0.20840   0.21326   0.21622   0.21932   0.22632
 Alpha virt. eigenvalues --    0.22802   0.22965   0.23438   0.23640   0.24074
 Alpha virt. eigenvalues --    0.24589   0.25226   0.25273   0.25742   0.25958
 Alpha virt. eigenvalues --    0.26009   0.26404   0.27008   0.27329   0.27905
 Alpha virt. eigenvalues --    0.27974   0.28294   0.28486   0.28843   0.29062
 Alpha virt. eigenvalues --    0.29581   0.29928   0.30338   0.30624   0.30971
 Alpha virt. eigenvalues --    0.31473   0.31506   0.31923   0.32165   0.32468
 Alpha virt. eigenvalues --    0.32607   0.32764   0.32945   0.33055   0.33280
 Alpha virt. eigenvalues --    0.33931   0.34037   0.34239   0.34417   0.34621
 Alpha virt. eigenvalues --    0.34888   0.35247   0.35712   0.35881   0.36172
 Alpha virt. eigenvalues --    0.36328   0.36608   0.36890   0.37121   0.37417
 Alpha virt. eigenvalues --    0.37651   0.37871   0.38304   0.38685   0.39127
 Alpha virt. eigenvalues --    0.39175   0.39408   0.40094   0.40274   0.40812
 Alpha virt. eigenvalues --    0.41400   0.41762   0.42274   0.42578   0.42802
 Alpha virt. eigenvalues --    0.43071   0.43524   0.44163   0.44494   0.44752
 Alpha virt. eigenvalues --    0.45304   0.45994   0.46328   0.46515   0.47405
 Alpha virt. eigenvalues --    0.47994   0.48084   0.48683   0.48997   0.49743
 Alpha virt. eigenvalues --    0.50020   0.50704   0.51484   0.51958   0.52396
 Alpha virt. eigenvalues --    0.52683   0.53215   0.53639   0.54211   0.55059
 Alpha virt. eigenvalues --    0.55381   0.55970   0.57104   0.58278   0.58623
 Alpha virt. eigenvalues --    0.60542   0.60938   0.61585   0.62630   0.63319
 Alpha virt. eigenvalues --    0.64986   0.65150   0.65225   0.66471   0.66899
 Alpha virt. eigenvalues --    0.67325   0.68276   0.69392   0.69528   0.70267
 Alpha virt. eigenvalues --    0.70650   0.71602   0.72494   0.73839   0.74654
 Alpha virt. eigenvalues --    0.74956   0.75937   0.76831   0.78202   0.78842
 Alpha virt. eigenvalues --    0.80252   0.80921   0.82442   0.86274   0.87054
 Alpha virt. eigenvalues --    0.89348   0.89784   0.91411   0.93344   0.95014
 Alpha virt. eigenvalues --    0.96232   0.97569   0.99807   1.04176   1.04752
 Alpha virt. eigenvalues --    1.06328   1.07104   1.07829   1.08447   1.09666
 Alpha virt. eigenvalues --    1.11381   1.11840   1.12040   1.12732   1.13258
 Alpha virt. eigenvalues --    1.14248   1.14524   1.15495   1.16079   1.16928
 Alpha virt. eigenvalues --    1.17865   1.18206   1.18509   1.20177   1.20305
 Alpha virt. eigenvalues --    1.20755   1.21212   1.22124   1.22226   1.22464
 Alpha virt. eigenvalues --    1.23436   1.24101   1.24543   1.25692   1.26108
 Alpha virt. eigenvalues --    1.26446   1.26963   1.27310   1.27536   1.29070
 Alpha virt. eigenvalues --    1.29414   1.29774   1.30037   1.30156   1.30468
 Alpha virt. eigenvalues --    1.31175   1.31295   1.32033   1.32345   1.32596
 Alpha virt. eigenvalues --    1.33057   1.34283   1.35041   1.35855   1.36219
 Alpha virt. eigenvalues --    1.36456   1.37211   1.37601   1.38279   1.39093
 Alpha virt. eigenvalues --    1.40268   1.41529   1.42190   1.42864   1.44339
 Alpha virt. eigenvalues --    1.45085   1.45381   1.46366   1.48075   1.48637
 Alpha virt. eigenvalues --    1.49568   1.50942   1.51757   1.52341   1.52852
 Alpha virt. eigenvalues --    1.53820   1.54958   1.55279   1.55711   1.56014
 Alpha virt. eigenvalues --    1.58194   1.58464   1.59327   1.60232   1.61738
 Alpha virt. eigenvalues --    1.62907   1.63174   1.63628   1.64396   1.64718
 Alpha virt. eigenvalues --    1.65469   1.65957   1.66949   1.67468   1.68399
 Alpha virt. eigenvalues --    1.68932   1.70515   1.71772   1.72312   1.73186
 Alpha virt. eigenvalues --    1.74252   1.74838   1.75496   1.76697   1.77356
 Alpha virt. eigenvalues --    1.79159   1.79977   1.81365   1.83062   1.84070
 Alpha virt. eigenvalues --    1.85366   1.86313   1.87912   1.88928   1.90520
 Alpha virt. eigenvalues --    1.91475   1.92137   1.94330   1.95575   1.97328
 Alpha virt. eigenvalues --    1.98443   1.98809   2.00558   2.01440   2.03925
 Alpha virt. eigenvalues --    2.04110   2.07291   2.10721   2.15735   2.16120
 Alpha virt. eigenvalues --    2.16561   2.17933   2.18384   2.21315   2.23319
 Alpha virt. eigenvalues --    2.24395   2.24721   2.26893   2.28477   2.29095
 Alpha virt. eigenvalues --    2.30435   2.31358   2.32794   2.37313   2.38731
 Alpha virt. eigenvalues --    2.40568   2.42534   2.46128   2.47671   2.58553
 Alpha virt. eigenvalues --    2.63335   2.65063   2.66720   2.69530   2.71450
 Alpha virt. eigenvalues --    2.71691   2.72702   2.74174   2.76297   2.80890
 Alpha virt. eigenvalues --    2.83569   2.84298   2.85030   2.89563   2.91842
 Alpha virt. eigenvalues --    2.92667   2.94796   2.95767   2.97143   2.99058
 Alpha virt. eigenvalues --    2.99689   3.00182   3.00495   3.01590   3.03340
 Alpha virt. eigenvalues --    3.04273   3.05452   3.09329   3.09596   3.09875
 Alpha virt. eigenvalues --    3.11758   3.12512   3.13355   3.14130   3.14721
 Alpha virt. eigenvalues --    3.15723   3.16563   3.17274   3.17739   3.18441
 Alpha virt. eigenvalues --    3.19069   3.19759   3.20180   3.20642   3.21118
 Alpha virt. eigenvalues --    3.22738   3.23829   3.24159   3.24488   3.25146
 Alpha virt. eigenvalues --    3.25660   3.26385   3.27076   3.27362   3.27638
 Alpha virt. eigenvalues --    3.28325   3.28571   3.28752   3.29673   3.30627
 Alpha virt. eigenvalues --    3.31174   3.32422   3.33110   3.37031   3.37936
 Alpha virt. eigenvalues --    3.39503   3.39784   3.41187   3.44246   3.44989
 Alpha virt. eigenvalues --    3.45305   3.47449   3.48516   3.49257   3.50610
 Alpha virt. eigenvalues --    3.54218   3.59127   3.60262   3.63906   3.82238
 Alpha virt. eigenvalues --    3.82346   3.83060   3.83139   3.84060   3.97031
 Alpha virt. eigenvalues --    3.98575   4.01472   4.02087   4.02529   4.03070
 Alpha virt. eigenvalues --    4.03399   4.04064   4.06184   4.06987   4.08408
 Alpha virt. eigenvalues --    4.10001   4.11418   4.17136   4.49069   4.52068
 Alpha virt. eigenvalues --    4.55615   4.56233   4.56577   4.62744   5.13492
 Alpha virt. eigenvalues --    5.13945   5.14908   5.15865   5.16954   5.17198
 Alpha virt. eigenvalues --    5.18842   5.19635   5.19710   5.20882   5.21169
 Alpha virt. eigenvalues --    5.21742   5.22786   5.24469   5.24659   5.28376
 Alpha virt. eigenvalues --    5.29452   5.30740   5.31375   5.32842   5.35130
 Alpha virt. eigenvalues --    5.37729   5.39841   5.40255   5.41449   5.44317
 Alpha virt. eigenvalues --    5.45415   5.48077   5.49676   5.49899   5.52680
 Alpha virt. eigenvalues --    5.53753   5.58278   5.61485   5.65177   5.69261
 Alpha virt. eigenvalues --    5.71750   5.72884   5.75604   5.76719   5.77496
 Alpha virt. eigenvalues --    5.78619   5.79675   5.80389   5.81028   5.81314
 Alpha virt. eigenvalues --    5.83519   6.09507   6.21250   6.22783  11.67560
 Alpha virt. eigenvalues --   11.67642  11.70938  11.71876  11.81363  11.89995
 Alpha virt. eigenvalues --   14.82617  14.94248  50.03370  50.03652  50.04446
 Alpha virt. eigenvalues --   50.05147  50.07311  50.10433  50.10840  50.11698
 Alpha virt. eigenvalues --   50.12824  50.14312  50.14996  50.16989  50.18029
 Alpha virt. eigenvalues --   50.18765  50.19621  50.23125 108.66276 108.68950
 Alpha virt. eigenvalues --  108.69919 108.71279 108.71699 108.75365 141.65865
 Alpha virt. eigenvalues --  141.68619 317.92288 318.04885
          Condensed to atoms (all electrons):
               1          2          3          4          5          6
     1  Si  13.783780   0.138356  -0.008489   0.054265   0.013829  -0.037288
     2  O    0.138356   9.219930  -0.054128  -0.066705  -0.113442   0.072010
     3  O   -0.008489  -0.054128   9.153873  -0.083458  -0.029174   0.012878
     4  O    0.054265  -0.066705  -0.083458   8.652409  -0.022451  -0.014933
     5  O    0.013829  -0.113442  -0.029174  -0.022451   8.399909   0.002464
     6  Ca  -0.037288   0.072010   0.012878  -0.014933   0.002464  18.447319
     7  O   -0.026657  -0.022611   0.012102  -0.001768   0.000685  -0.005882
     8  O   -0.020582  -0.057124  -0.002743  -0.006478   0.004463   0.037711
     9  O   -0.027221   0.002222   0.020057  -0.013423  -0.004935   0.047620
    10  O   -0.015116   0.001055  -0.061046  -0.004101  -0.001117   0.036812
    11  H    0.049540  -0.008660   0.010578   0.013345  -0.007598  -0.020038
    12  H    0.002068   0.005528   0.000010  -0.002133  -0.002756  -0.010918
    13  H    0.072837  -0.009662  -0.000908   0.004761  -0.011728  -0.014437
    14  H   -0.002802   0.014079   0.007506   0.000471  -0.000774  -0.003329
    15  H   -0.061627  -0.037116  -0.010596   0.185756  -0.002093  -0.007615
    16  H    0.002772  -0.000856   0.000218  -0.005284   0.000377  -0.017444
    17  H    0.041206  -0.131275  -0.167535   0.002911   0.021586  -0.034427
    18  H   -0.006689   0.005061   0.018148   0.000905  -0.000533  -0.009146
    19  H    0.055820   0.021235   0.002350  -0.011668   0.219855  -0.003094
    20  H    0.127851   0.064892   0.117979   0.021697  -0.022889   0.011894
    21  Si  -0.653281  -0.118855  -0.026221  -0.023693   0.052913  -0.003804
    22  O    0.001543   0.002399  -0.011577  -0.005670  -0.004956  -0.000101
    23  O   -0.074963  -0.001408  -0.004722   0.051296  -0.002119  -0.000076
    24  O   -0.013810   0.000710   0.067453  -0.008789   0.000389   0.001108
    25  O   -0.285241  -0.047113  -0.052644   0.020326   0.102781   0.007703
    26  Ca   0.003167  -0.000408  -0.002421  -0.000542  -0.000259  -0.000086
    27  O    0.003264  -0.000003   0.000030   0.000023  -0.000005   0.000008
    28  O   -0.004448  -0.000005   0.000122   0.000006   0.000029   0.000025
    29  O   -0.013332   0.000064   0.002489   0.000020  -0.000036  -0.000247
    30  O    0.003863   0.000031  -0.000553  -0.000264  -0.000016  -0.000075
    31  H    0.009479   0.000613   0.000129  -0.001003   0.000786   0.000160
    32  H   -0.002466  -0.000117   0.000015   0.000097  -0.000023   0.000077
    33  H   -0.013754  -0.000398   0.000882   0.000203   0.001116   0.000074
    34  H    0.000504   0.000010  -0.000037  -0.000022  -0.000032   0.000057
    35  H    0.011056  -0.001359   0.008647  -0.004008   0.002892  -0.000029
    36  H    0.002514   0.000139   0.000113   0.000078  -0.000054   0.000071
    37  H   -0.004958  -0.000049   0.001775   0.000687  -0.000012   0.000062
    38  H   -0.001916  -0.000007   0.000307  -0.000032   0.000023   0.000082
    39  H    0.087130   0.008056   0.019133  -0.007189  -0.004739   0.001725
               7          8          9         10         11         12
     1  Si  -0.026657  -0.020582  -0.027221  -0.015116   0.049540   0.002068
     2  O   -0.022611  -0.057124   0.002222   0.001055  -0.008660   0.005528
     3  O    0.012102  -0.002743   0.020057  -0.061046   0.010578   0.000010
     4  O   -0.001768  -0.006478  -0.013423  -0.004101   0.013345  -0.002133
     5  O    0.000685   0.004463  -0.004935  -0.001117  -0.007598  -0.002756
     6  Ca  -0.005882   0.037711   0.047620   0.036812  -0.020038  -0.010918
     7  O    8.096935   0.002555   0.000566  -0.001600  -0.007699  -0.000092
     8  O    0.002555   8.072746   0.000968  -0.001828   0.233736   0.312013
     9  O    0.000566   0.000968   8.866745   0.000599  -0.005121   0.000275
    10  O   -0.001600  -0.001828   0.000599   8.542165   0.001469  -0.000083
    11  H   -0.007699   0.233736  -0.005121   0.001469   0.496710  -0.017066
    12  H   -0.000092   0.312013   0.000275  -0.000083  -0.017066   0.417302
    13  H    0.282703  -0.006680  -0.000473  -0.006217   0.004819   0.001090
    14  H    0.316842  -0.001226  -0.000397   0.013339   0.005217  -0.000199
    15  H    0.001890  -0.003121  -0.032166  -0.000116  -0.002174   0.000703
    16  H   -0.000049  -0.001128   0.232162  -0.000948   0.001395   0.000366
    17  H   -0.011191   0.000609  -0.000077   0.107219  -0.004983   0.000358
    18  H    0.002640   0.000154  -0.000893   0.269201  -0.000246  -0.000029
    19  H   -0.001408  -0.000817  -0.000121  -0.000330   0.001914   0.000271
    20  H   -0.003067   0.000511  -0.004725   0.014762   0.000530  -0.000038
    21  Si  -0.004123  -0.000395   0.001553   0.001882  -0.006216  -0.000561
    22  O    0.000075  -0.000001   0.000034   0.000140   0.000197  -0.000010
    23  O    0.000058   0.000110   0.001390  -0.001022  -0.000505   0.000142
    24  O   -0.000335   0.000001  -0.000002   0.000686  -0.000131   0.000003
    25  O    0.010563   0.004188  -0.003098  -0.001506  -0.011487   0.001005
    26  Ca   0.000011  -0.000036   0.000066   0.000075   0.000300   0.000094
    27  O   -0.000000   0.000000  -0.000000  -0.000000   0.000001   0.000000
    28  O    0.000002  -0.000000  -0.000000  -0.000001   0.000002  -0.000000
    29  O    0.000034  -0.000000  -0.000000   0.000062  -0.000001  -0.000001
    30  O    0.000001   0.000000   0.000000   0.000002   0.000005  -0.000000
    31  H    0.000005   0.000004  -0.000001  -0.000005  -0.000043  -0.000001
    32  H   -0.000017  -0.000001  -0.000000  -0.000004  -0.000005  -0.000000
    33  H   -0.000012  -0.000004   0.000003   0.000001   0.000038  -0.000003
    34  H   -0.000000   0.000000  -0.000000   0.000000  -0.000003   0.000000
    35  H   -0.000020  -0.000013   0.000005  -0.001950  -0.000166   0.000008
    36  H    0.000127   0.000001  -0.000002   0.000002  -0.000014   0.000001
    37  H   -0.000017   0.000002  -0.000037   0.000132  -0.000061   0.000001
    38  H   -0.000001  -0.000000   0.000002  -0.000009  -0.000001  -0.000000
    39  H   -0.000602   0.000034  -0.002099   0.000993   0.000137  -0.000165
              13         14         15         16         17         18
     1  Si   0.072837  -0.002802  -0.061627   0.002772   0.041206  -0.006689
     2  O   -0.009662   0.014079  -0.037116  -0.000856  -0.131275   0.005061
     3  O   -0.000908   0.007506  -0.010596   0.000218  -0.167535   0.018148
     4  O    0.004761   0.000471   0.185756  -0.005284   0.002911   0.000905
     5  O   -0.011728  -0.000774  -0.002093   0.000377   0.021586  -0.000533
     6  Ca  -0.014437  -0.003329  -0.007615  -0.017444  -0.034427  -0.009146
     7  O    0.282703   0.316842   0.001890  -0.000049  -0.011191   0.002640
     8  O   -0.006680  -0.001226  -0.003121  -0.001128   0.000609   0.000154
     9  O   -0.000473  -0.000397  -0.032166   0.232162  -0.000077  -0.000893
    10  O   -0.006217   0.013339  -0.000116  -0.000948   0.107219   0.269201
    11  H    0.004819   0.005217  -0.002174   0.001395  -0.004983  -0.000246
    12  H    0.001090  -0.000199   0.000703   0.000366   0.000358  -0.000029
    13  H    0.401143  -0.034089  -0.000729   0.000068   0.014552   0.000612
    14  H   -0.034089   0.402208  -0.000702  -0.000013  -0.019338  -0.000132
    15  H   -0.000729  -0.000702   0.497557   0.011220   0.014712  -0.000798
    16  H    0.000068  -0.000013   0.011220   0.451073   0.003793   0.000108
    17  H    0.014552  -0.019338   0.014712   0.003793   0.691862  -0.004272
    18  H    0.000612  -0.000132  -0.000798   0.000108  -0.004272   0.415705
    19  H    0.004202   0.000118  -0.002258   0.000276  -0.002398   0.000124
    20  H    0.000687   0.003746  -0.018739  -0.001496  -0.178042  -0.003949
    21  Si  -0.002437  -0.002406   0.054276   0.000493   0.093638  -0.001740
    22  O   -0.000041   0.000212  -0.000119  -0.000012  -0.006256   0.000110
    23  O    0.000236  -0.000255   0.003619   0.000039   0.014885  -0.000356
    24  O   -0.000264   0.000449  -0.000819   0.000062  -0.014140   0.000353
    25  O   -0.018231  -0.003867   0.058747  -0.000749   0.040795  -0.001618
    26  Ca  -0.000386   0.000231   0.000465   0.000084  -0.001974   0.000119
    27  O   -0.000003   0.000000   0.000009  -0.000000  -0.000043   0.000000
    28  O    0.000081  -0.000013   0.000022  -0.000000   0.000092  -0.000002
    29  O    0.000229   0.000049  -0.000002  -0.000000  -0.000781   0.000039
    30  O   -0.000025   0.000024  -0.000019  -0.000001  -0.000708   0.000021
    31  H   -0.000198   0.000018  -0.000194  -0.000000  -0.000026   0.000009
    32  H    0.000080  -0.000014   0.000013   0.000000   0.000120  -0.000003
    33  H   -0.000002  -0.000019   0.000245   0.000003   0.001010  -0.000017
    34  H    0.000001   0.000000  -0.000019  -0.000000  -0.000037   0.000001
    35  H   -0.000171  -0.000782   0.001861   0.000012   0.020148  -0.000549
    36  H    0.000085  -0.000034  -0.000054  -0.000000  -0.000360   0.000026
    37  H    0.000136  -0.000060  -0.000472   0.000009   0.000905  -0.000009
    38  H   -0.000005  -0.000005   0.000047  -0.000001   0.000376  -0.000012
    39  H    0.000022   0.000320  -0.041705  -0.000289  -0.014646   0.000647
              19         20         21         22         23         24
     1  Si   0.055820   0.127851  -0.653281   0.001543  -0.074963  -0.013810
     2  O    0.021235   0.064892  -0.118855   0.002399  -0.001408   0.000710
     3  O    0.002350   0.117979  -0.026221  -0.011577  -0.004722   0.067453
     4  O   -0.011668   0.021697  -0.023693  -0.005670   0.051296  -0.008789
     5  O    0.219855  -0.022889   0.052913  -0.004956  -0.002119   0.000389
     6  Ca  -0.003094   0.011894  -0.003804  -0.000101  -0.000076   0.001108
     7  O   -0.001408  -0.003067  -0.004123   0.000075   0.000058  -0.000335
     8  O   -0.000817   0.000511  -0.000395  -0.000001   0.000110   0.000001
     9  O   -0.000121  -0.004725   0.001553   0.000034   0.001390  -0.000002
    10  O   -0.000330   0.014762   0.001882   0.000140  -0.001022   0.000686
    11  H    0.001914   0.000530  -0.006216   0.000197  -0.000505  -0.000131
    12  H    0.000271  -0.000038  -0.000561  -0.000010   0.000142   0.000003
    13  H    0.004202   0.000687  -0.002437  -0.000041   0.000236  -0.000264
    14  H    0.000118   0.003746  -0.002406   0.000212  -0.000255   0.000449
    15  H   -0.002258  -0.018739   0.054276  -0.000119   0.003619  -0.000819
    16  H    0.000276  -0.001496   0.000493  -0.000012   0.000039   0.000062
    17  H   -0.002398  -0.178042   0.093638  -0.006256   0.014885  -0.014140
    18  H    0.000124  -0.003949  -0.001740   0.000110  -0.000356   0.000353
    19  H    0.513486   0.000908  -0.020309  -0.000823  -0.007318   0.000595
    20  H    0.000908   0.733806  -0.162488   0.036985  -0.035309  -0.016637
    21  Si  -0.020309  -0.162488  13.182574   0.041583   0.131478   0.042403
    22  O   -0.000823   0.036985   0.041583   9.098152  -0.065959  -0.022612
    23  O   -0.007318  -0.035309   0.131478  -0.065959   8.412067   0.018031
    24  O    0.000595  -0.016637   0.042403  -0.022612   0.018031   8.500948
    25  O   -0.036363  -0.057118   0.317545  -0.003871   0.062408   0.053488
    26  Ca  -0.000153   0.007072  -0.010204   0.052767   0.002931  -0.015584
    27  O   -0.000101   0.000652  -0.007725  -0.028856   0.001330  -0.006917
    28  O   -0.000347   0.000222   0.001176  -0.024829  -0.000115  -0.001910
    29  O    0.000127  -0.006408   0.031154   0.000692  -0.003557  -0.074781
    30  O   -0.000036   0.004502   0.007612   0.028644  -0.009982   0.044824
    31  H   -0.000824  -0.001927   0.020777  -0.043774  -0.002526   0.003208
    32  H    0.000222  -0.000286   0.003416   0.000261   0.000609  -0.000009
    33  H   -0.000307  -0.005351   0.025959  -0.041027  -0.012294   0.004068
    34  H    0.000028   0.000262   0.001965  -0.000232   0.000074   0.000487
    35  H    0.000648  -0.070896   0.037874  -0.072049   0.033380   0.223440
    36  H    0.000058  -0.000180  -0.003532  -0.000852  -0.000118   0.001892
    37  H    0.000174  -0.006487   0.031200  -0.042642  -0.008205  -0.035576
    38  H   -0.000038  -0.002779   0.013072  -0.009614  -0.001039  -0.015782
    39  H    0.001327   0.012553  -0.017511   0.005940   0.195336   0.012686
              25         26         27         28         29         30
     1  Si  -0.285241   0.003167   0.003264  -0.004448  -0.013332   0.003863
     2  O   -0.047113  -0.000408  -0.000003  -0.000005   0.000064   0.000031
     3  O   -0.052644  -0.002421   0.000030   0.000122   0.002489  -0.000553
     4  O    0.020326  -0.000542   0.000023   0.000006   0.000020  -0.000264
     5  O    0.102781  -0.000259  -0.000005   0.000029  -0.000036  -0.000016
     6  Ca   0.007703  -0.000086   0.000008   0.000025  -0.000247  -0.000075
     7  O    0.010563   0.000011  -0.000000   0.000002   0.000034   0.000001
     8  O    0.004188  -0.000036   0.000000  -0.000000  -0.000000   0.000000
     9  O   -0.003098   0.000066  -0.000000  -0.000000  -0.000000   0.000000
    10  O   -0.001506   0.000075  -0.000000  -0.000001   0.000062   0.000002
    11  H   -0.011487   0.000300   0.000001   0.000002  -0.000001   0.000005
    12  H    0.001005   0.000094   0.000000  -0.000000  -0.000001  -0.000000
    13  H   -0.018231  -0.000386  -0.000003   0.000081   0.000229  -0.000025
    14  H   -0.003867   0.000231   0.000000  -0.000013   0.000049   0.000024
    15  H    0.058747   0.000465   0.000009   0.000022  -0.000002  -0.000019
    16  H   -0.000749   0.000084  -0.000000  -0.000000  -0.000000  -0.000001
    17  H    0.040795  -0.001974  -0.000043   0.000092  -0.000781  -0.000708
    18  H   -0.001618   0.000119   0.000000  -0.000002   0.000039   0.000021
    19  H   -0.036363  -0.000153  -0.000101  -0.000347   0.000127  -0.000036
    20  H   -0.057118   0.007072   0.000652   0.000222  -0.006408   0.004502
    21  Si   0.317545  -0.010204  -0.007725   0.001176   0.031154   0.007612
    22  O   -0.003871   0.052767  -0.028856  -0.024829   0.000692   0.028644
    23  O    0.062408   0.002931   0.001330  -0.000115  -0.003557  -0.009982
    24  O    0.053488  -0.015584  -0.006917  -0.001910  -0.074781   0.044824
    25  O    8.656775  -0.006693   0.000548  -0.000025  -0.006642   0.000057
    26  Ca  -0.006693  18.474736   0.026009   0.032025   0.049384   0.011983
    27  O    0.000548   0.026009   7.997562  -0.000525  -0.002803   0.024262
    28  O   -0.000025   0.032025  -0.000525   7.952720   0.010913  -0.002375
    29  O   -0.006642   0.049384  -0.002803   0.010913   8.772888  -0.004616
    30  O    0.000057   0.011983   0.024262  -0.002375  -0.004616   7.952098
    31  H   -0.004939  -0.009057   0.001607   0.289969  -0.018734   0.002416
    32  H   -0.000973  -0.014158  -0.001321   0.322264   0.001677  -0.000274
    33  H    0.000930  -0.019601   0.275329  -0.001950   0.001182  -0.019824
    34  H    0.000111  -0.014375   0.303501  -0.001079  -0.000127   0.003205
    35  H   -0.007324  -0.009173   0.001754  -0.009798   0.024721  -0.023923
    36  H   -0.000874  -0.019236   0.000256  -0.000349   0.258120  -0.002437
    37  H    0.002037  -0.014302  -0.000493   0.001757   0.001405   0.243341
    38  H    0.000347  -0.012032  -0.001795  -0.000030  -0.001245   0.297509
    39  H   -0.055408  -0.000297  -0.000259   0.000364   0.001131   0.001266
              31         32         33         34         35         36
     1  Si   0.009479  -0.002466  -0.013754   0.000504   0.011056   0.002514
     2  O    0.000613  -0.000117  -0.000398   0.000010  -0.001359   0.000139
     3  O    0.000129   0.000015   0.000882  -0.000037   0.008647   0.000113
     4  O   -0.001003   0.000097   0.000203  -0.000022  -0.004008   0.000078
     5  O    0.000786  -0.000023   0.001116  -0.000032   0.002892  -0.000054
     6  Ca   0.000160   0.000077   0.000074   0.000057  -0.000029   0.000071
     7  O    0.000005  -0.000017  -0.000012  -0.000000  -0.000020   0.000127
     8  O    0.000004  -0.000001  -0.000004   0.000000  -0.000013   0.000001
     9  O   -0.000001  -0.000000   0.000003  -0.000000   0.000005  -0.000002
    10  O   -0.000005  -0.000004   0.000001   0.000000  -0.001950   0.000002
    11  H   -0.000043  -0.000005   0.000038  -0.000003  -0.000166  -0.000014
    12  H   -0.000001  -0.000000  -0.000003   0.000000   0.000008   0.000001
    13  H   -0.000198   0.000080  -0.000002   0.000001  -0.000171   0.000085
    14  H    0.000018  -0.000014  -0.000019   0.000000  -0.000782  -0.000034
    15  H   -0.000194   0.000013   0.000245  -0.000019   0.001861  -0.000054
    16  H   -0.000000   0.000000   0.000003  -0.000000   0.000012  -0.000000
    17  H   -0.000026   0.000120   0.001010  -0.000037   0.020148  -0.000360
    18  H    0.000009  -0.000003  -0.000017   0.000001  -0.000549   0.000026
    19  H   -0.000824   0.000222  -0.000307   0.000028   0.000648   0.000058
    20  H   -0.001927  -0.000286  -0.005351   0.000262  -0.070896  -0.000180
    21  Si   0.020777   0.003416   0.025959   0.001965   0.037874  -0.003532
    22  O   -0.043774   0.000261  -0.041027  -0.000232  -0.072049  -0.000852
    23  O   -0.002526   0.000609  -0.012294   0.000074   0.033380  -0.000118
    24  O    0.003208  -0.000009   0.004068   0.000487   0.223440   0.001892
    25  O   -0.004939  -0.000973   0.000930   0.000111  -0.007324  -0.000874
    26  Ca  -0.009057  -0.014158  -0.019601  -0.014375  -0.009173  -0.019236
    27  O    0.001607  -0.001321   0.275329   0.303501   0.001754   0.000256
    28  O    0.289969   0.322264  -0.001950  -0.001079  -0.009798  -0.000349
    29  O   -0.018734   0.001677   0.001182  -0.000127   0.024721   0.258120
    30  O    0.002416  -0.000274  -0.019824   0.003205  -0.023923  -0.002437
    31  H    0.438803  -0.014319  -0.010855   0.002825   0.013084   0.001523
    32  H   -0.014319   0.395526   0.003502   0.000046   0.000222   0.000246
    33  H   -0.010855   0.003502   0.464194  -0.008796   0.001916  -0.000598
    34  H    0.002825   0.000046  -0.008796   0.405608  -0.000302   0.000088
    35  H    0.013084   0.000222   0.001916  -0.000302   0.493144   0.001507
    36  H    0.001523   0.000246  -0.000598   0.000088   0.001507   0.442570
    37  H   -0.001937   0.000275   0.003632   0.001292   0.003141   0.003581
    38  H   -0.000034   0.000044   0.005104  -0.002821   0.007607  -0.000107
    39  H    0.000085  -0.000019   0.001374   0.000073  -0.005714   0.000067
              37         38         39
     1  Si  -0.004958  -0.001916   0.087130
     2  O   -0.000049  -0.000007   0.008056
     3  O    0.001775   0.000307   0.019133
     4  O    0.000687  -0.000032  -0.007189
     5  O   -0.000012   0.000023  -0.004739
     6  Ca   0.000062   0.000082   0.001725
     7  O   -0.000017  -0.000001  -0.000602
     8  O    0.000002  -0.000000   0.000034
     9  O   -0.000037   0.000002  -0.002099
    10  O    0.000132  -0.000009   0.000993
    11  H   -0.000061  -0.000001   0.000137
    12  H    0.000001  -0.000000  -0.000165
    13  H    0.000136  -0.000005   0.000022
    14  H   -0.000060  -0.000005   0.000320
    15  H   -0.000472   0.000047  -0.041705
    16  H    0.000009  -0.000001  -0.000289
    17  H    0.000905   0.000376  -0.014646
    18  H   -0.000009  -0.000012   0.000647
    19  H    0.000174  -0.000038   0.001327
    20  H   -0.006487  -0.002779   0.012553
    21  Si   0.031200   0.013072  -0.017511
    22  O   -0.042642  -0.009614   0.005940
    23  O   -0.008205  -0.001039   0.195336
    24  O   -0.035576  -0.015782   0.012686
    25  O    0.002037   0.000347  -0.055408
    26  Ca  -0.014302  -0.012032  -0.000297
    27  O   -0.000493  -0.001795  -0.000259
    28  O    0.001757  -0.000030   0.000364
    29  O    0.001405  -0.001245   0.001131
    30  O    0.243341   0.297509   0.001266
    31  H   -0.001937  -0.000034   0.000085
    32  H    0.000275   0.000044  -0.000019
    33  H    0.003632   0.005104   0.001374
    34  H    0.001292  -0.002821   0.000073
    35  H    0.003141   0.007607  -0.005714
    36  H    0.003581  -0.000107   0.000067
    37  H    0.470435   0.009138   0.000915
    38  H    0.009138   0.404990  -0.000413
    39  H    0.000915  -0.000413   0.465179
 Mulliken charges:
               1
     1  Si   0.809793
     2  O   -0.885092
     3  O   -0.940541
     4  O   -0.725642
     5  O   -0.592356
     6  Ca   1.503109
     7  O   -0.640645
     8  O   -0.567627
     9  O   -1.079477
    10  O   -0.893596
    11  H    0.272285
    12  H    0.292820
    13  H    0.318341
    14  H    0.305626
    15  H    0.392107
    16  H    0.323738
    17  H    0.521729
    18  H    0.317013
    19  H    0.264973
    20  H    0.437302
    21  Si   0.970960
    22  O   -0.883851
    23  O   -0.697574
    24  O   -0.749185
    25  O   -0.734572
    26  Ca   1.489458
    27  O   -0.585296
    28  O   -0.563989
    29  O   -1.023069
    30  O   -0.560537
    31  H    0.324896
    32  H    0.305297
    33  H    0.344044
    34  H    0.307745
    35  H    0.321158
    36  H    0.315735
    37  H    0.339284
    38  H    0.311071
    39  H    0.334563
 Sum of Mulliken charges =  -1.00000
 Mulliken charges with hydrogens summed into heavy atoms:
               1
     1  Si   0.809793
     2  O   -0.885092
     3  O   -0.503239
     4  O   -0.333535
     5  O   -0.327382
     6  Ca   1.503109
     7  O   -0.016678
     8  O   -0.002521
     9  O   -0.755739
    10  O   -0.054853
    21  Si   0.970960
    22  O   -0.883851
    23  O   -0.363011
    24  O   -0.428028
    25  O   -0.734572
    26  Ca   1.489458
    27  O    0.066493
    28  O    0.066204
    29  O   -0.707334
    30  O    0.089818
 APT charges:
               1
     1  Si   0.951938
     2  O   -0.099128
     3  O   -0.570251
     4  O   -1.350916
     5  O   -0.100555
     6  Ca   1.396064
     7  O   -0.010775
     8  O    0.207681
     9  O   -1.739558
    10  O   -0.985773
    11  H   -0.843591
    12  H    0.499947
    13  H   -0.372978
    14  H    0.321463
    15  H    0.937961
    16  H    0.907723
    17  H    0.154542
    18  H    0.876000
    19  H   -0.092231
    20  H    0.119759
    21  Si   0.453481
    22  O   -0.864260
    23  O   -1.156367
    24  O   -0.698373
    25  O   -0.937723
    26  Ca   1.466646
    27  O   -0.435617
    28  O   -0.874915
    29  O   -1.939663
    30  O   -0.246789
    31  H   -0.258437
    32  H    1.083304
    33  H    0.018104
    34  H    0.458528
    35  H    0.606403
    36  H    1.129534
    37  H    0.056438
    38  H    0.264155
    39  H    0.668228
 Sum of APT charges =  -1.00000
 APT charges with hydrogens summed into heavy atoms:
               1
     1  Si   0.951938
     2  O   -0.099128
     3  O   -0.450492
     4  O   -0.412955
     5  O   -0.192786
     6  Ca   1.396064
     7  O   -0.062289
     8  O   -0.135964
     9  O   -0.831835
    10  O    0.044769
    21  Si   0.453481
    22  O   -0.864260
    23  O   -0.488139
    24  O   -0.091970
    25  O   -0.937723
    26  Ca   1.466646
    27  O    0.041016
    28  O   -0.050047
    29  O   -0.810129
    30  O    0.073804
 Electronic spatial extent (au):  <R**2>=          21061.9786
 Charge=             -1.0000 electrons
 Dipole moment (field-independent basis, Debye):
    X=             25.6484    Y=              2.6186    Z=             -2.8746  Tot=             25.9415
 Quadrupole moment (field-independent basis, Debye-Ang):
   XX=           -216.4711   YY=           -141.4168   ZZ=           -168.9505
   XY=            -69.8265   XZ=            -14.2410   YZ=              4.0369
 Traceless Quadrupole moment (field-independent basis, Debye-Ang):
   XX=            -40.8583   YY=             34.1960   ZZ=              6.6623
   XY=            -69.8265   XZ=            -14.2410   YZ=              4.0369
 Octapole moment (field-independent basis, Debye-Ang**2):
  XXX=           1718.5131  YYY=            165.6036  ZZZ=            547.5372  XYY=            537.7636
  XXY=            639.0331  XXZ=            113.5463  XZZ=            615.8102  YZZ=             95.2619
  YYZ=             70.6024  XYZ=            136.0396
 Hexadecapole moment (field-independent basis, Debye-Ang**3):
 XXXX=         -17964.9499 YYYY=          -2558.7039 ZZZZ=          -3261.9719 XXXY=          -4041.4407
 XXXZ=           -700.7778 YYYX=            531.9464 YYYZ=           -230.9667 ZZZX=          -1198.2685
 ZZZY=           -664.0090 XXYY=          -3578.6144 XXZZ=          -3886.7938 YYZZ=           -818.1312
 XXYZ=           -944.5682 YYXZ=           -403.6797 ZZXY=           -190.6400
 N-N= 2.945287542197D+03 E-N=-1.339453729733D+04  KE= 3.143440063343D+03
  Exact polarizability:   0.000   0.000   0.000   0.000   0.000   0.000
 Approx polarizability: 173.491  -2.861 164.798   1.320   2.225 159.661
 D2PCM: C-PCM CHGder 2nd derivatives, FixD1E=F FixD2E=F DoIter=F DoCFld=F I1PDM=0
 Calling FoFJK, ICntrl=    100147 FMM=F ISym2X=0 I1Cent= 0 IOpClX= 0 NMat=1 NMatS=1 NMatT=0.
 -------------------------------------------------------------------
 Center     Atomic                   Forces (Hartrees/Bohr)
 Number     Number              X              Y              Z
 -------------------------------------------------------------------
      1       14           0.000007739    0.000039586   -0.000114610
      2        8           0.000000597    0.000001666   -0.000001571
      3        8           0.000012620   -0.000044568    0.000129479
      4        8           0.000002249   -0.000004137    0.000005266
      5        8          -0.000002211   -0.000005843   -0.000002623
      6       20           0.000002860    0.000005297    0.000004581
      7        8          -0.000001063    0.000009962   -0.000005735
      8        8           0.000000258    0.000000634    0.000000487
      9        8           0.000004421   -0.000000318    0.000009323
     10        8           0.000002971    0.000010152    0.000003325
     11        1          -0.000000788   -0.000000041   -0.000000978
     12        1          -0.000000441   -0.000003266    0.000000034
     13        1          -0.000000320    0.000007008   -0.000003297
     14        1           0.000000492    0.000010821   -0.000002210
[...]
 094068,0.00085202,0.00069729,-0.00070681,-0.00019699,0.00121833,0.0003
 8472,-0.00026863,-0.00008691,-0.00014166,-0.00013433,-0.00012492,-0.00
 024779,0.00008446,0.00016322,-0.00021750,0.00028923,0.00001861,-0.0012
 6399,0.00046376,-0.00064036,0.00031943,-0.00004976,-0.00026184,-0.0000
 0955,0.00000077,-0.00000368,0.00014492,0.00017914,0.00016434,0.0000586
 7,0.00007754,0.00004345,0.00024581,-0.00045441,0.00006169,-0.00002080,
 0.00002522,0.00000617,0.00186763,-0.00079942,0.00132613,-0.00005100,0.
 00000433,-0.00000701,-0.00000183,0.00011304,-0.00036031,0.00488433,-0.
 00208642,-0.00002951,-0.00255162,0.01267750,-0.02411356,0.00405149,-0.
 00663926,0.00334668,0.00097114,0.00473658,0.00854771,0.00786321,-0.244
 69470,-0.11488962,-0.00471072,-0.00199711,0.00524855,0.00834522,0.0003
 5626,0.00567863,0.00040961,-0.00029674,-0.00030664,0.00007242,-0.00037
 862,-0.00086160,-0.01354516,0.02144956,0.00906776,0.00445863,-0.001232
 22,-0.00097587,-0.00002675,0.00128267,0.00046252,-0.00001210,-0.000184
 09,0.00004415,-0.00108278,0.00007504,-0.00003402,0.00004565,-0.0000307
 6,-0.00012142,0.00449754,0.21742580,0.00273374,-0.00086513,-0.00180458
 ,-0.00087894,-0.00007306,0.00028495,-0.00292517,0.00087159,0.00012506,
 -0.00041574,0.00071866,0.00045755,-0.00060757,-0.00017265,0.00097279,0
 .00026571,-0.00019648,-0.00006035,-0.00010172,-0.00009755,-0.00009249,
 -0.00017810,0.00005983,0.00011981,-0.00013592,0.00019818,0.00001730,-0
 .00089281,0.00032461,-0.00045751,0.00022777,-0.00002670,-0.00018949,-0
 .00000761,0.00000025,-0.00000279,0.00011000,0.00012915,0.00011171,0.00
 004281,0.00005320,0.00003595,0.00018019,-0.00024410,0.00006301,-0.0000
 1447,0.00001634,0.00000803,0.00131296,-0.00052929,0.00092722,-0.000033
 13,0.00000396,-0.00000456,-0.00000744,0.00006516,-0.00026111,0.0035052
 7,-0.00098089,0.00012472,-0.00031431,-0.01476269,-0.03514559,0.0047242
 9,-0.00277439,0.00660435,0.00032498,0.00123013,0.00134436,0.00319471,-
 0.10944457,-0.09908433,-0.00364321,0.00069609,0.00387174,0.00004495,0.
 00258846,0.00366178,0.00109629,-0.00027388,-0.00017364,0.00006242,-0.0
 0090396,-0.00042592,-0.00781084,0.01677914,-0.00632426,0.00249315,-0.0
 0074165,-0.00124255,0.00002170,0.00160718,0.00005187,0.00004064,-0.000
 08126,0.00005039,-0.00171218,0.00007983,-0.00014468,0.00003800,-0.0000
 5857,-0.00006535,0.00347063,0.10647892,0.12506699,0.00004996,-0.000009
 00,-0.00003496,-0.00001713,-0.00000523,0.00000442,-0.00009433,0.000009
 48,0.00000042,-0.00001248,0.00000969,0.00000865,-0.00000930,-0.0000021
 3,0.00001262,0.00000479,-0.00000107,0.00000012,0.00000286,-0.00000662,
 -0.00000542,-0.00000240,0.00000038,0.00000152,-0.00000272,0.00000297,0
 .00000010,-0.00002069,0.00000524,-0.00001220,0.00000269,-0.00000016,-0
 .00000250,0.00000010,0.00000016,0.00000020,0.00000321,0.00000435,0.000
 00599,0.00000012,0.00000351,0.00000053,0.00000320,-0.00000620,0.000000
 27,-0.00000035,0.00000042,0.00000012,0.00002999,-0.00001420,0.00002332
 ,-0.00000144,0.00000073,-0.00000007,-0.00000016,0.00000115,-0.00000371
 ,0.00010628,-0.00000534,0.00001404,-0.00016082,0.00020740,-0.00054262,
 0.00037658,-0.00013060,0.00009787,0.00005743,0.00002965,0.00015818,-0.
 00118680,0.00403559,0.00211688,-0.00004835,-0.00005023,0.00006738,-0.0
 0239495,-0.00128955,-0.00077606,-0.00014801,-0.00011634,-0.00016589,0.
 00013132,0.00007568,0.00004037,-0.27571663,-0.24038722,-0.14514748,-0.
 00039790,-0.00041725,-0.00016611,-0.00004593,-0.00001649,0.00000976,0.
 00001056,0.00001558,-0.00006172,-0.00005021,0.00003697,0.00008201,0.00
 002599,-0.00001293,-0.00003493,0.00301623,-0.00265650,-0.00086448,0.27
 660503,-0.00015572,0.00002944,0.00011714,0.00005845,0.00000913,-0.0000
 2004,0.00022854,-0.00005277,0.00000176,0.00003634,-0.00003709,-0.00003
 206,0.00003242,0.00000665,-0.00005421,-0.00001833,0.00001295,0.0000023
 4,0.00000588,0.00000742,0.00000905,0.00001145,-0.00000356,-0.00000714,
 0.00000953,-0.00001368,-0.00000063,0.00006456,-0.00002236,0.00003709,-
 0.00001410,0.00000161,0.00001130,0.00000076,0.00000006,-0.00000012,-0.
 00000715,-0.00000997,-0.00000895,-0.00000067,-0.00000526,-0.00000333,-
 0.00001131,0.00002066,-0.00000201,0.00000113,-0.00000155,-0.00000026,-
 0.00009362,0.00004283,-0.00007498,0.00000347,-0.00000081,0.00000028,0.
 00000067,-0.00000444,0.00001681,-0.00025004,0.00003749,-0.00003898,0.0
 0011859,-0.00048694,0.00146405,-0.00022626,0.00037837,-0.00012829,-0.0
 0008215,-0.00013337,-0.00034076,0.00242032,-0.00370864,-0.00279544,0.0
 0020395,0.00011112,-0.00023086,0.00400595,-0.00127576,0.00245537,0.000
 07334,0.00010981,0.00011810,-0.00005407,-0.00004485,0.00000750,-0.2401
 7141,-0.21936418,-0.13050381,-0.00065378,-0.00035909,-0.00020371,0.000
 02384,-0.00005132,-0.00005305,-0.00001492,0.00001433,0.00003794,0.0000
 7570,-0.00003351,-0.00002825,-0.00001284,0.00001194,0.00004194,-0.0065
 9881,0.00138287,0.00042912,0.24056932,0.22273556,-0.00007723,0.0000124
 1,0.00006277,0.00002844,0.00000742,-0.00001051,0.00009793,-0.00002648,
 -0.00000007,0.00002565,-0.00001889,-0.00001694,0.00001589,0.00000957,-
 0.00002806,-0.00000727,0.00000389,0.00000357,0.00000064,0.00000495,0.0
 0000073,0.00000509,-0.00000168,-0.00000398,0.00000496,-0.00000540,-0.0
 0000127,0.00002832,-0.00001069,0.00001249,-0.00000650,0.00000087,0.000
 00583,0.00000010,-0.00000039,0.00000004,-0.00000218,-0.00000533,-0.000
 00505,-0.00000101,-0.00000289,0.00000041,-0.00000517,0.00000977,-0.000
 00162,0.00000030,-0.00000051,-0.00000008,-0.00004091,0.00002145,-0.000
 02599,0.00000142,0.00000005,0.00000057,-0.00000014,-0.00000139,0.00000
 650,-0.00011261,0.00001967,-0.00000780,-0.00052113,0.00036469,0.000663
 62,-0.00007532,-0.00014731,-0.00088476,0.00002430,-0.00012405,-0.00009
 500,0.00094319,-0.00163387,0.00002272,0.00017104,0.00003479,-0.0000453
 1,-0.00207000,-0.00083834,-0.00143563,-0.00012883,-0.00002675,-0.00005
 972,0.00012979,0.00005784,0.00023799,-0.14216933,-0.12834819,-0.075592
 79,0.00040710,0.00033853,0.00035428,-0.00001966,-0.00021790,0.00003376
 ,0.00003230,0.00005486,-0.00005310,0.00014697,-0.00000139,0.00003309,0
 .00000701,0.00000531,-0.00001356,-0.00204555,0.00073102,-0.00117214,0.
 14508017,0.12966731,0.07817516,-0.00242939,0.00081007,0.00164687,0.000
 76370,0.00006881,-0.00026685,0.00250241,-0.00097973,-0.00010345,0.0004
 6972,-0.00059785,-0.00041309,0.00053534,0.00011844,-0.00087283,-0.0002
 4562,0.00018302,0.00006116,0.00009608,0.00008132,0.00007876,0.00016349
 ,-0.00005699,-0.00010810,0.00012540,-0.00018200,-0.00001676,0.00080724
 ,-0.00029592,0.00041291,-0.00020838,0.00003198,0.00017196,0.00000595,0
 .00000029,0.00000272,-0.00009402,-0.00011149,-0.00010335,-0.00004213,-
 0.00004627,-0.00002914,-0.00015588,0.00026093,-0.00003673,0.00001329,-
 0.00001529,-0.00000535,-0.00119028,0.00048049,-0.00086035,0.00003226,-
 0.00000039,0.00000433,0.00000939,-0.00007242,0.00025757,-0.00278567,0.
 00133640,-0.00015179,0.00132620,-0.00330014,0.02040226,-0.00371969,0.0
 0266728,-0.00227344,-0.00004106,-0.00183579,-0.00286200,0.01362595,0.0
 0569625,-0.01367717,0.00320745,0.00071321,-0.00430146,0.00325303,0.004
 04766,-0.00149303,-0.00021846,-0.00024562,0.00084047,-0.00016060,0.000
 36974,0.00019098,-0.00146820,0.00445892,0.00152484,-0.37717517,0.11614
 777,0.04684460,-0.00000002,-0.00074596,0.00002813,-0.00002795,0.000021
 67,0.00004616,0.00093161,0.00003866,-0.00044366,-0.00026316,0.00006603
 ,-0.00028729,-0.00491514,-0.01026710,-0.00342641,-0.00024349,0.0004881
 5,0.00013651,0.39021402,-0.00032626,0.00009977,0.00029624,0.00011954,0
 .00001025,-0.00004996,0.00048586,-0.00020809,-0.00004461,0.00005130,-0
 .00008901,-0.00007874,0.00004505,0.00001478,-0.00011170,-0.00003768,0.
 00003339,0.00000955,0.00001771,0.00001395,0.00001275,0.00002592,-0.000
 00899,-0.00001667,0.00001400,-0.00002878,-0.00000416,0.00013089,-0.000
 04979,0.00007016,-0.00003242,0.00000521,0.00002632,0.00000103,0.000000
 24,0.00000011,-0.00001201,-0.00001672,-0.00001722,-0.00000516,-0.00000
 605,-0.00000659,-0.00002354,0.00004576,0.00000902,0.00000333,-0.000002
 69,-0.00000268,-0.00019862,0.00005003,-0.00014688,0.00000594,0.0000035
 1,0.00000408,0.00000122,-0.00000614,0.00002875,-0.00039198,0.00034856,
 -0.00000107,-0.00272966,0.00176550,0.00246389,0.00096315,0.00063459,-0
 .00246155,0.00007585,-0.00055761,-0.00025905,0.00326731,-0.00726466,-0
 .00089582,0.00063492,-0.00002777,-0.00032755,0.00412623,-0.00763660,0.
 00155735,-0.00057192,0.00006028,-0.00021943,0.00002866,0.00054677,-0.0
 0008093,0.00244312,0.00223599,0.00104064,0.16050727,-0.10398338,-0.040
 15387,-0.00002962,-0.00061243,0.00012611,-0.00002533,-0.00000426,-0.00
 001041,0.00053855,-0.00003799,0.00037129,0.00006623,-0.00000722,0.0000
 5526,-0.00656386,-0.00117746,0.00043827,0.00022995,0.00068408,-0.00006
 115,-0.13124957,0.10537048,0.00088845,-0.00017057,-0.00062195,-0.00032
 144,-0.00004261,0.00008686,-0.00098892,0.00042504,0.00005680,-0.000308
 71,0.00023759,0.00015858,-0.00017750,-0.00007581,0.00030711,0.00010154
 ,-0.00007215,-0.00001871,-0.00004042,-0.00003377,-0.00003697,-0.000066
 09,0.00002497,0.00004373,-0.00006478,0.00008555,-0.00000139,-0.0003212
 3,0.00011678,-0.00016594,0.00008534,-0.00001441,-0.00006958,-0.0000030
 5,-0.00000022,-0.00000115,0.00003601,0.00004325,0.00004657,0.00001690,
 0.00001801,0.00001256,0.00006261,-0.00011874,0.00005154,-0.00000587,0.
 00000724,0.00000198,0.00046908,-0.00018840,0.00033855,-0.00001237,0.00
 000083,-0.00000163,0.00000119,0.00002915,-0.00008425,0.00109256,-0.000
 54809,-0.00001929,0.00689038,0.00145272,-0.00892700,-0.00041831,-0.002
 47015,0.00302732,-0.00066428,0.00128024,0.00131720,-0.00786740,-0.0020
 1287,-0.00464474,-0.00143991,-0.00018408,0.00097388,-0.00156352,0.0034
 8862,0.00110317,0.00069465,0.00000304,-0.00015267,0.00008530,-0.000748
 58,-0.00007500,0.00090998,-0.00047803,-0.00098824,0.06974469,-0.043985
 19,-0.03007679,-0.00002616,0.00100562,-0.00000506,0.00003727,-0.000013
 20,0.00000670,-0.00098584,0.00005463,-0.00033720,0.00004825,-0.0000667
 7,0.00013228,-0.00084620,0.00188892,0.00330099,0.00011591,0.00006778,-
 0.00028302,-0.04642553,0.03464120,0.03388214,-0.00004504,0.00001120,-0
 .00000588,0.00001407,-0.00000011,0.00000455,-0.00001414,0.00000463,0.0
 0002022,0.00003747,-0.00001008,-0.00000276,0.00000690,0.00000745,-0.00
 001415,-0.00000365,0.00000159,-0.00000018,0.00000091,0.00000002,0.0000
 0117,0.00000311,-0.00000047,-0.00000234,0.00000626,-0.00000425,0.00000
 054,0.00000142,0.00000053,-0.00000128,-0.00000361,-0.00000100,0.000002
 85,-0.00000009,0.00000013,0.00000010,-0.00000156,-0.00000089,-0.000001
 46,0.00000005,0.00000013,0.,-0.00000463,0.00000740,-0.00000545,-0.0000
 0013,-0.00000017,0.00000081,-0.00000075,-0.00000020,0.00000630,-0.0000
 0116,0.00000011,-0.00000052,-0.00000130,-0.00000328,0.00000699,0.00001
 851,-0.00003010,0.00001141,-0.00115880,0.00012756,0.00000676,0.0005243
 7,0.00027436,-0.00055214,0.00016599,-0.00014823,-0.00009332,-0.0009715
 6,0.00055678,0.00123495,0.00014364,-0.00004330,0.00005713,-0.00026911,
 -0.00159198,0.00073442,-0.00036384,-0.00002684,-0.00011687,0.00005260,
 0.00022492,-0.00008936,0.00034624,0.00017193,0.00013589,-0.23644654,-0
 .18380125,-0.11548130,-0.00001344,-0.00016449,0.00004191,-0.00000727,-
 0.00001328,-0.00001973,0.00022748,-0.00002626,0.00018907,-0.00003157,0
 .00021326,-0.00036683,0.00024688,0.00023009,-0.00003360,0.00011557,-0.
 00002118,0.00002540,-0.02217377,-0.03151687,-0.01912821,0.25965094,-0.
 00017919,0.00006725,0.00009990,0.00004790,-0.00000094,-0.00001518,0.00
 014004,-0.00006441,0.00001111,0.00004346,-0.00004418,-0.00003011,0.000
 03495,0.00000572,-0.00005855,-0.00001405,0.00001240,0.00000190,0.00000
 644,0.00000462,0.00000536,0.00001005,-0.00000352,-0.00000637,0.0000082
 4,-0.00001324,0.00000017,0.00004468,-0.00001755,0.00002297,-0.00001353
 ,0.00000290,0.00001073,0.00000031,-0.00000007,0.00000029,-0.00000591,-
 0.00000743,-0.00000724,-0.00000280,-0.00000214,-0.00000192,-0.00001124
 ,0.00002116,-0.00000286,0.00000129,-0.00000108,-0.00000049,-0.00006786
 ,0.00002752,-0.00004491,0.00000202,0.,0.00000018,0.00000019,-0.0000027
 8,0.00001634,-0.00013738,0.00006983,-0.00001052,-0.00068433,0.00018352
 ,0.00085194,0.00066224,0.00043130,-0.00052447,0.00006885,-0.00019305,-
 0.00015433,0.00189713,0.00028942,-0.00082053,0.00034421,-0.00001414,-0
 .00022430,-0.00188206,-0.00268606,-0.00160415,-0.00027252,0.00075670,-
 0.00130577,-0.00003811,0.00013462,0.00007179,-0.00036062,-0.00007014,-
 0.00004903,-0.22663959,-0.26284896,-0.14978596,-0.00000928,-0.00024496
 ,0.00000280,-0.00000567,0.00000849,0.00000870,-0.00032287,-0.00012943,
 0.00069508,0.00050031,-0.00029536,0.00099239,-0.00012257,-0.00061694,-
 0.00021544,-0.00010077,-0.00001731,0.00011663,0.01155964,0.00981968,0.
 00660377,0.21554732,0.25542205,0.00001718,-0.00000562,0.00002460,-0.00
 000378,0.00000054,-0.00000503,0.00004442,-0.00002574,-0.00003275,-0.00
 001949,0.00000376,-0.00000327,-0.00000493,-0.00000287,0.00000255,-0.00
 000115,0.00000055,0.00000277,0.00000252,0.00000191,-0.00000120,-0.0000
 0035,0.,-0.00000016,-0.00000308,0.00000111,-0.00000254,0.00000654,-0.0
 0000463,0.00000429,0.00000026,0.00000006,0.00000073,-0.00000002,-0.000
 00016,-0.00000004,0.00000029,0.00000043,0.00000054,-0.00000188,-0.0000
 0084,0.00000003,0.00000145,-0.00000411,0.00000492,0.00000015,0.0000001
 0,-0.00000009,-0.00000974,0.00000986,-0.00001357,0.00000101,0.00000048
 ,0.00000086,-0.00000040,0.00000319,-0.00000273,-0.00005308,0.00004893,
 -0.00000348,0.00049467,-0.00012021,0.00037066,-0.00062186,-0.00021320,
 -0.00004026,-0.00008741,0.00007633,-0.00000076,0.00127341,-0.00029529,
 -0.00050695,-0.00009642,0.00003251,-0.00005122,0.00115903,0.00201045,0
 .00031090,0.00013527,-0.00072442,0.00107855,0.00002016,-0.00008620,-0.
 00005022,-0.00012113,-0.00007068,0.00011163,-0.14055779,-0.15045114,-0
 .09144161,0.00000573,0.00013157,0.00001383,0.00000060,-0.00000111,-0.0
 0000164,0.00042384,0.00011813,-0.00063109,-0.00058481,0.00061109,-0.00
 120422,-0.00025231,-0.00011822,-0.00014946,-0.00001232,0.00001721,0.00
 010765,0.00539191,0.00374364,0.00166331,0.13343096,0.14533944,0.090448
 59,-0.00673826,-0.01869448,-0.00588451,0.00321079,0.00246165,0.0014541
 6,0.00034825,0.00106585,0.00288464,0.01438240,0.00176102,-0.00084478,0
 .00022598,0.00315325,-0.00118633,-0.00127623,0.00039278,-0.00042572,0.
 00027786,0.00028233,0.00053890,0.00051651,-0.00017949,-0.00035420,0.00
 281452,-0.00266341,0.00070297,0.00075806,-0.00030683,0.00050347,-0.000
 76505,0.00007547,0.00061426,0.00001281,-0.00000398,0.00001797,-0.00030
 714,-0.00047779,-0.00068952,-0.00004706,-0.00003827,-0.00007606,-0.002
 71654,0.00715991,-0.00180227,0.00027752,-0.00023592,0.00010291,-0.0011
 2435,0.00051543,-0.00063860,0.00000434,0.00000217,0.00000410,0.0001129
 4,-0.00010589,0.00003181,0.00079189,-0.00029159,-0.00015923,0.01013902
 ,0.00868720,0.00234422,0.00154745,-0.00544728,-0.00052079,-0.33042272,
 0.15396144,0.12838531,-0.00150914,-0.00300464,-0.00430164,-0.00652401,
 0.00043038,0.00140472,-0.00042027,0.00047021,0.00047557,0.00050482,-0.
 00007341,0.00001571,0.00004023,-0.00077384,-0.00004306,0.00013036,-0.0
 0070513,-0.00038984,0.00037471,0.00004711,-0.00021239,0.00007678,0.000
 94203,-0.00012553,0.00003451,-0.00002775,-0.00000205,-0.00072014,0.000
 04504,-0.00015647,-0.00000610,-0.00001544,-0.00000939,-0.00036609,0.00
 116108,0.00011345,0.00001219,-0.00004603,-0.00002968,-0.00052443,-0.00
 006853,0.00039560,-0.00005045,-0.00004892,0.00002257,0.31692407,-0.008
 43543,0.00282520,0.00212284,0.00016409,-0.00062294,-0.00036474,0.00121
 734,-0.00083706,0.00076153,-0.00252842,-0.00992113,0.00010175,0.000833
 62,-0.00029982,-0.00078137,-0.00002814,0.00004283,0.00006410,0.0000317
 0,0.00001377,-0.00002139,0.00006356,-0.00000988,-0.00003334,0.00005708
 ,-0.00013462,0.00003676,0.00048020,-0.00020324,0.00018396,-0.00006220,
 -0.00001105,0.00003898,0.00000213,0.00000330,-0.00000297,-0.00003153,-
 0.00000610,0.00002117,-0.00003296,-0.00002134,-0.00000950,0.00161607,0
 .00040512,-0.00087061,0.00002921,-0.00001955,0.00000605,-0.00068044,0.
 00040460,-0.00031696,0.00000911,0.00000237,0.00000355,-0.00006892,-0.0
 0021060,0.00042039,-0.00030323,0.00006908,-0.00059709,0.01711838,-0.02
 274769,-0.01432364,-0.00056321,-0.00200162,-0.00070179,0.13655137,-0.0
 9621843,-0.06485653,-0.00039528,0.00110733,0.00194125,0.00425813,0.004
 57956,0.00108700,0.00004328,-0.00014192,0.00011150,-0.00005219,0.00000
 454,-0.00002678,-0.00000268,-0.00019910,0.00001464,-0.00012229,0.00041
 651,0.00015799,-0.00027763,0.00003693,0.00012281,0.00006013,0.00015337
 ,-0.00011528,0.00001360,-0.00002227,0.00000121,0.00002630,-0.00000779,
 0.00004835,0.00000205,0.00000131,0.00000628,0.00004264,-0.00064514,-0.
 00032584,-0.00001041,0.00003012,0.00001158,0.00035583,-0.00001717,-0.0
 0025133,0.00002483,0.00001653,-0.00002684,-0.14940572,0.12418601,-0.00
 195170,0.00375543,0.00377600,-0.00060096,-0.00079868,-0.00056573,0.001
 18864,0.00028676,-0.00041095,-0.00340716,0.00008497,-0.00597094,0.0000
 8122,-0.00069866,-0.00011711,0.00024912,-0.00003398,0.00016860,-0.0000
 2590,-0.00003225,-0.00013449,-0.00005971,0.00002992,0.00005049,-0.0007
 0692,0.00075508,-0.00020874,0.00034914,-0.00012736,0.00011994,0.000119
 76,-0.00001495,-0.00009554,-0.00000301,0.00000056,-0.00000364,0.000043
 90,0.00008359,0.00017900,-0.00001564,-0.00002532,0.00000741,-0.0005752
 3,-0.00262713,0.00027878,-0.00010480,0.00007825,-0.00003389,-0.0005656
 6,0.00024290,-0.00035868,0.00002159,0.00000280,0.00000382,-0.00002506,
 0.00005886,0.00007890,-0.00041584,-0.00021537,-0.00073783,0.00681594,-
 0.01341653,-0.00644303,-0.00099468,0.00311988,0.00137880,0.12133474,-0
 .06827375,-0.06339611,-0.00085514,-0.00027968,-0.00005388,0.00257995,0
 .00190967,-0.00121363,0.00018191,-0.00016667,-0.00024565,-0.00025371,0
 .00001318,-0.00000710,-0.00002729,0.00038397,0.00000108,0.00004005,0.0
 0019396,0.00017796,-0.00015512,-0.00002674,0.00008740,-0.00002817,-0.0
 0041684,0.00010137,-0.00001702,0.00001208,-0.00000235,0.00040036,-0.00
 003779,0.00006781,-0.00000061,0.00001502,0.00000297,-0.00056597,-0.000
 28832,-0.00039976,-0.00001035,0.00002480,0.00001521,0.00011567,0.00005
 539,-0.00000067,0.00000394,0.00001064,-0.00000416,-0.12216026,0.076362
 31,0.07390834\\0.00000092,0.00000154,-0.00000151,-0.00000004,-0.000001
 12,0.00000083,-0.00000400,-0.00000324,-0.00000321,-0.00000173,0.000004
 66,-0.00000527,0.00000236,0.00000668,0.00000284,-0.00000280,-0.0000047
 6,-0.00000435,0.00000013,-0.00000977,0.00000609,0.00000087,-0.00000007
 ,-0.00000051,-0.00000420,-0.00000018,-0.00001026,-0.00000063,-0.000011
 46,-0.00000246,0.00000067,0.00000044,0.00000140,0.00000037,0.00000366,
 -0.00000059,0.00000065,-0.00000681,0.00000439,-0.00000061,-0.00001209,
 0.00000288,-0.00000274,0.00000290,-0.00000738,-0.00000578,0.00000055,-
 0.00001339,-0.00000423,-0.00000779,-0.00000319,-0.00000456,-0.00001306
 ,-0.00000586,0.00000295,0.00000875,0.00000333,-0.00000196,-0.00000484,
 -0.00000200,0.00000005,0.00000293,-0.00000059,0.00000225,0.00000555,0.
 00000224,-0.00000134,0.00000564,-0.00000555,-0.00000076,-0.00000255,-0
 .00000114,0.00000134,0.00000226,0.00000235,0.00000154,0.00000181,0.000
 00559,0.00000252,0.00000968,0.00000201,0.00000579,0.00000576,0.0000109
 4,0.00000180,-0.00000564,0.00000590,-0.00000008,-0.00000183,-0.0000020
 2,0.00000458,0.00000616,0.00000828,0.00000644,0.00000411,0.00001326,0.
 00000216,0.00000921,0.00000131,0.00000150,0.00001056,-0.00000071,-0.00
 000053,-0.00000475,0.00000150,0.00000237,-0.00000765,0.00000837,-0.000
 00160,-0.00000178,-0.00000249,-0.00000182,0.00000100,-0.00000472,-0.00
 000185,0.00000555,-0.00000630\\\@


 I CLAIM NOT TO HAVE CONTROLLED EVENTS,
 BUT CONFESS PLAINLY THAT EVENTS HAVE CONTROLLED ME.

                                         A. LINCOLN
 Job cpu time:       0 days 18 hours 37 minutes 20.0 seconds.
 Elapsed time:       0 days  0 hours 46 minutes 41.7 seconds.
 File lengths (MBytes):  RWF=   1697 Int=      0 D2E=      0 Chk=     53 Scr=      1
 Normal termination of Gaussian 16 at Tue Jul 26 11:56:18 2022.
