 Entering Gaussian System, Link 0=g16
 Initial command:
 /home/apps/g16/l1.exe "./Gau-60942.inp" -scrdir="./"
 Entering Link 1 = /home/apps/g16/l1.exe PID=     60943.
  
 Copyright (c) 1988-2017, Gaussian, Inc.  All Rights Reserved.
  
 This is part of the Gaussian(R) 16 program.  It is based on
 the Gaussian(R) 09 system (copyright 2009, Gaussian, Inc.),
 the Gaussian(R) 03 system (copyright 2003, Gaussian, Inc.),
 the Gaussian(R) 98 system (copyright 1998, Gaussian, Inc.),
 the Gaussian(R) 94 system (copyright 1995, Gaussian, Inc.),
 the Gaussian 92(TM) system (copyright 1992, Gaussian, Inc.),
 the Gaussian 90(TM) system (copyright 1990, Gaussian, Inc.),
 the Gaussian 88(TM) system (copyright 1988, Gaussian, Inc.),
 the Gaussian 86(TM) system (copyright 1986, Carnegie Mellon
 University), and the Gaussian 82(TM) system (copyright 1983,
 Carnegie Mellon University). Gaussian is a federally registered
 trademark of Gaussian, Inc.
  
 This software contains proprietary and confidential information,
 including trade secrets, belonging to Gaussian, Inc.
  
 This software is provided under written license and may be
 used, copied, transmitted, or stored only in accord with that
 written license.
  
 The following legend is applicable only to US Government
 contracts under FAR:
  
                    RESTRICTED RIGHTS LEGEND
  
 Use, reproduction and disclosure by the US Government is
 subject to restrictions as set forth in subparagraphs (a)
 and (c) of the Commercial Computer Software - Restricted
 Rights clause in FAR 52.227-19.
  
 Gaussian, Inc.
 340 Quinnipiac St., Bldg. 40, Wallingford CT 06492
  
  
 ---------------------------------------------------------------
 Warning -- This program may not be used in any manner that
 competes with the business of Gaussian, Inc. or will provide
 assistance to any competitor of Gaussian, Inc.  The licensee
 of this program is prohibited from giving any competitor of
 Gaussian, Inc. access to this program.  By using this program,
 the user acknowledges that Gaussian, Inc. is engaged in the
 business of creating and licensing software in the field of
 computational chemistry and represents and warrants to the
 licensee that it is not a competitor of Gaussian, Inc. and that
 it will not use this program in any manner prohibited above.
 ---------------------------------------------------------------
  

 Cite this work as:
 Gaussian 16, Revision B.01,
 M. J. Frisch, G. W. Trucks, H. B. Schlegel, G. E. Scuseria, 
 M. A. Robb, J. R. Cheeseman, G. Scalmani, V. Barone, 
 G. A. Petersson, H. Nakatsuji, X. Li, M. Caricato, A. V. Marenich, 
 J. Bloino, B. G. Janesko, R. Gomperts, B. Mennucci, H. P. Hratchian, 
 J. V. Ortiz, A. F. Izmaylov, J. L. Sonnenberg, D. Williams-Young, 
 F. Ding, F. Lipparini, F. Egidi, J. Goings, B. Peng, A. Petrone, 
 T. Henderson, D. Ranasinghe, V. G. Zakrzewski, J. Gao, N. Rega, 
 G. Zheng, W. Liang, M. Hada, M. Ehara, K. Toyota, R. Fukuda, 
 J. Hasegawa, M. Ishida, T. Nakajima, Y. Honda, O. Kitao, H. Nakai, 
 T. Vreven, K. Throssell, J. A. Montgomery, Jr., J. E. Peralta, 
 F. Ogliaro, M. J. Bearpark, J. J. Heyd, E. N. Brothers, K. N. Kudin, 
 V. N. Staroverov, T. A. Keith, R. Kobayashi, J. Normand, 
 K. Raghavachari, A. P. Rendell, J. C. Burant, S. S. Iyengar, 
 J. Tomasi, M. Cossi, J. M. Millam, M. Klene, C. Adamo, R. Cammi, 
 J. W. Ochterski, R. L. Martin, K. Morokuma, O. Farkas, 
 J. B. Foresman, and D. J. Fox, Gaussian, Inc., Wallingford CT, 2016.
 
 ******************************************
 Gaussian 16:  EM64L-G16RevB.01 20-Dec-2017
                27-Apr-2022 
 ******************************************
 %nprocshared=16
 Will use up to   16 processors via shared memory.
 %mem=2000MW
 %chk=c2sdimerirc.chk
 ----------------------------------------------------------------------
 # irc=(calcfc,maxpoints=6,recalc=3,maxcycle=50) wb97xd/6-311++g(d,p) s
 crf=(cpcm,solvent=water) nosymm
 ----------------------------------------------------------------------
 1/6=50,10=4,18=10,26=3,38=1,42=6,44=3,71=3,172=1/1,23;
 2/12=2,15=1,17=6,18=5,29=1,40=1/2;
 3/5=4,6=6,7=1111,11=2,25=1,30=1,70=2101,71=2,72=1,74=-58,140=1/1,2,3;
 4//1;
 5/5=2,38=5,53=1/2;
 8/6=4,10=90,11=11/1;
 11/6=1,8=1,9=11,15=111,16=1,31=1/1,2,10;
 10/6=1,13=1,31=1/2;
 6/7=2,8=2,9=2,10=2,28=1/1;
 7/10=1,18=20,25=1,30=1/1,2,3,16;
 1/6=50,10=4,18=10,26=3,42=6,44=3,71=3/23(2);
 2/15=1,29=1/2;
 99/5=20/99;
 2/15=1,29=1/2;
 3/5=4,6=6,7=1111,11=2,25=1,30=1,70=2105,71=2,72=1,74=-58,140=1/1,2,3;
 4/5=5,16=3,69=1/1;
 5/5=2,38=5,53=1/2;
 8/6=4,10=90,11=11/1;
 11/6=1,8=1,9=11,15=111,16=1,31=1/1,2,10;
 10/6=1,13=1,31=1/2;
 7/10=1,18=20,25=1,30=1/1,2,3,16;
 1/6=50,18=10,26=3,42=6,44=3,71=3/23(-8);
 2/15=1,29=1/2;
 6/7=2,8=2,9=2,10=2,19=2,28=1/1;
 99/5=20,9=1/99;
 -----------
 c2sdimerirc
 -----------
 Symbolic Z-matrix:
 Charge = -1 Multiplicity = 1
 Si                   -1.28508   0.64254   0. 
 O                    -2.93306   0.76608  -0.04212 
 O                    -1.07683   0.35673  -1.67841 
 O                    -0.84743   2.18322   0.52444 
 O                    -1.11404  -0.62425   1.09709 
 Ca                   -4.20163   2.51095  -0.9316 
 O                    -4.82775   0.06345  -1.6075 
 O                    -4.84429   1.62712   1.39613 
 O                    -2.79751   3.92045   0.02404 
 O                    -2.8147    1.9909   -2.87747 
 H                    -4.00301   1.15955   1.1169 
 H                    -4.61213   2.19656   2.13152 
 H                    -4.00209   0.03806  -1.04274 
 H                    -4.53666  -0.10108  -2.50669 
 H                    -1.57503   2.85337   0.39346 
 H                    -2.54136   4.84031   0.00364 
 H                    -2.10206   1.38642  -2.55523 
 H                    -2.39645   2.63213  -3.45409 
 H                    -0.16492  -0.79432   1.12819 
 H                    -0.13204   0.24912  -1.83408 
 Si                    2.13054   1.23253  -0.31676 
 O                     3.55007   0.71673   0.27837 
 O                     1.77777   2.76214   0.27334 
 O                     2.38137   1.4941   -1.98207 
 O                     0.86217   0.2716   -0.08103 
 Ca                    5.43194   0.28564  -1.15015 
 O                     5.84616   1.58895   0.99026 
 O                     4.73329  -1.54974   0.43654 
 O                     4.0757   -0.3656   -2.77943 
 O                     4.88195   2.51429  -2.06613 
 H                     4.02975  -0.8587    0.56272 
 H                     4.2988   -2.33429   0.09778 
 H                     4.85789   1.49247   0.97905 
 H                     6.0452    2.52335   1.06314 
 H                     2.84908   0.71831  -2.39689 
 H                     3.8775   -1.15091  -3.28513 
 H                     3.90592   2.38834  -2.1089 
 H                     5.02903   3.32741  -1.57939 
 H                     0.81299   2.76795   0.43766 
 
 IRC-IRC-IRC-IRC-IRC-IRC-IRC-IRC-IRC-IRC-IRC-IRC-IRC-IRC-IRC-IRC-IRC-IRC
 ------------------------------------------------------------------------
 INPUT DATA FOR L123
 ------------------------------------------------------------------------
 GENERAL PARAMETERS:
 Follow reaction path in both directions.
 Maximum points per path      =   6
 Step size                    =   0.100 bohr
 Integration scheme           = HPC                                 
    Redo corrector integration= Yes                                 
    DWI Weight Power          =  2
    DWI will use Hessian update vectors when possible.
    Max correction cycles     =  50
 Initial Hessian              = CalcFC
 Hessian evaluation           = Analytic every   3 predictor steps
                              = Update at all corrector steps
 Hessian updating method      = Bofill                              
 ------------------------------------------------------------------------
 IRC-IRC-IRC-IRC-IRC-IRC-IRC-IRC-IRC-IRC-IRC-IRC-IRC-IRC-IRC-IRC-IRC-IRC
                          Input orientation:                          
 ---------------------------------------------------------------------
 Center     Atomic      Atomic             Coordinates (Angstroms)
 Number     Number       Type             X           Y           Z
 ---------------------------------------------------------------------
      1         14           0       -1.285081    0.642541    0.000000
      2          8           0       -2.933055    0.766079   -0.042118
      3          8           0       -1.076827    0.356729   -1.678406
      4          8           0       -0.847428    2.183220    0.524436
      5          8           0       -1.114040   -0.624248    1.097089
      6         20           0       -4.201631    2.510946   -0.931604
      7          8           0       -4.827754    0.063448   -1.607496
      8          8           0       -4.844289    1.627117    1.396125
      9          8           0       -2.797506    3.920454    0.024042
     10          8           0       -2.814698    1.990897   -2.877468
     11          1           0       -4.003010    1.159553    1.116901
     12          1           0       -4.612125    2.196557    2.131521
     13          1           0       -4.002089    0.038062   -1.042739
     14          1           0       -4.536656   -0.101079   -2.506687
     15          1           0       -1.575028    2.853373    0.393459
     16          1           0       -2.541360    4.840311    0.003636
     17          1           0       -2.102056    1.386417   -2.555226
     18          1           0       -2.396446    2.632130   -3.454094
     19          1           0       -0.164922   -0.794317    1.128190
     20          1           0       -0.132042    0.249123   -1.834078
     21         14           0        2.130536    1.232535   -0.316761
     22          8           0        3.550067    0.716727    0.278372
     23          8           0        1.777766    2.762136    0.273336
     24          8           0        2.381370    1.494102   -1.982072
     25          8           0        0.862174    0.271605   -0.081027
     26         20           0        5.431939    0.285642   -1.150153
     27          8           0        5.846161    1.588949    0.990259
     28          8           0        4.733294   -1.549741    0.436539
     29          8           0        4.075698   -0.365596   -2.779432
     30          8           0        4.881953    2.514289   -2.066126
     31          1           0        4.029747   -0.858701    0.562716
     32          1           0        4.298798   -2.334292    0.097781
     33          1           0        4.857895    1.492467    0.979048
     34          1           0        6.045200    2.523354    1.063139
     35          1           0        2.849084    0.718308   -2.396892
     36          1           0        3.877505   -1.150911   -3.285125
     37          1           0        3.905920    2.388339   -2.108903
     38          1           0        5.029029    3.327409   -1.579394
     39          1           0        0.812991    2.767953    0.437655
 ---------------------------------------------------------------------
                    Distance matrix (angstroms):
                    1          2          3          4          5
     1  Si   0.000000
     2  O    1.653135   0.000000
     3  O    1.715257   2.508105   0.000000
     4  O    1.685309   2.584398   2.870750   0.000000
     5  O    1.684522   2.557268   2.943989   2.877654   0.000000
     6  Ca   3.586793   2.333459   3.868173   3.671258   4.845437
     7  O    3.933182   2.556166   3.763043   4.988142   4.645361
     8  O    3.947976   2.542193   5.025972   4.128437   4.367244
     9  O    3.610086   3.157979   4.308039   2.659169   4.963850
    10  O    3.526700   3.090857   2.669916   3.934475   5.052556
    11  H    2.983606   1.625715   4.125629   3.369956   3.395362
    12  H    4.245889   3.096813   5.513515   4.093390   4.611246
    13  H    2.972345   1.635263   3.010445   4.124273   3.654907
    14  H    4.172432   3.065550   3.586928   5.293027   4.997520
    15  H    2.264212   2.527995   3.282386   0.997829   3.577912
    16  H    4.381726   4.093273   5.007657   3.193865   5.752763
    17  H    2.783879   2.718656   1.697105   3.419547   4.284665
    18  H    4.138159   3.925771   3.173628   4.292980   5.741239
    19  H    2.142926   3.386298   3.167564   3.113850   0.964736
    20  H    2.201844   3.365121   0.963552   3.132905   3.212295
    21  Si   3.480642   5.092442   3.592811   3.237234   3.996735
    22  O    4.843723   6.491226   5.036539   4.642102   4.921626
    23  O    3.734759   5.125972   4.212360   2.699970   4.528654
    24  O    4.254013   5.704082   3.653075   4.145190   5.117278
    25  O    2.180565   3.827503   2.513681   2.635070   2.468994
    26  Ca   6.824118   8.451727   6.530554   6.770192   6.980533
    27  O    7.261605   8.877925   7.521164   6.736044   7.304386
    28  O    6.420086   8.022783   6.470327   6.714699   5.956860
    29  O    6.122053   7.608955   5.318132   6.453617   6.482877
    30  O    6.767911   8.259976   6.349209   6.296541   7.470494
    31  H    5.551376   7.175399   5.707626   5.748181   5.176782
    32  H    6.328570   7.869661   6.268475   6.861020   5.763825
    33  H    6.278301   7.891091   6.600976   5.764939   6.337067
    34  H    7.642038   9.215133   7.933070   6.922009   7.820695
    35  H    4.779346   6.243426   4.007460   4.933997   5.451304
    36  H    6.376583   7.783037   5.422170   6.924895   6.663084
    37  H    5.868711   7.326316   5.398197   5.437910   6.674883
    38  H    7.040667   8.504023   6.790892   6.345708   7.779232
    39  H    3.018414   4.274405   3.723322   1.762508   3.956682
                    6          7          8          9         10
     6  Ca   0.000000
     7  O    2.615169   0.000000
     8  O    2.571475   3.386307   0.000000
     9  O    2.207156   4.654065   3.366204   0.000000
    10  O    2.445490   3.062725   4.745016   3.484573   0.000000
    11  H    2.462130   3.050244   1.002164   3.204708   4.249494
    12  H    3.106458   4.310093   0.958629   3.272022   5.325693
    13  H    2.483410   1.000659   3.030256   4.202619   2.930818
    14  H    3.068518   0.959350   4.279397   5.059838   2.734773
    15  H    2.961772   4.729453   3.632783   1.664206   3.602723
    16  H    3.009504   5.535500   4.191315   0.955073   4.061359
    17  H    2.882521   3.174566   4.815699   3.682067   0.988481
    18  H    3.104245   3.989901   5.525089   3.730691   0.958443
    19  H    5.609147   5.473732   5.275567   5.511688   5.551939
    20  H    4.742558   4.704841   5.876934   4.902650   3.364384
    21  Si   6.489122   7.172905   7.192903   5.623758   5.620291
    22  O    8.048111   8.612268   8.517241   7.114790   7.217553
    23  O    6.104766   7.379251   6.811794   4.726200   5.622553
    24  O    6.743394   7.359249   7.977472   6.060729   5.296004
    25  O    5.601808   5.894804   6.048397   5.168984   4.929040
    26  Ca   9.889662  10.272285  10.671642   9.072726   8.596426
    27  O   10.271405  11.090895  10.698220   9.004581   9.493753
    28  O    9.909282   9.909293  10.136238   9.316981   8.971674
    29  O    8.955620   8.990493  10.048500   8.571501   7.282872
    30  O    9.154160  10.024738  10.362145   8.082091   7.756974
    31  H    9.019041   9.165997   9.253236   8.351160   8.173219
    32  H    9.838356   9.589112  10.048607   9.459641   8.840882
    33  H    9.314661  10.126406   9.712078   8.087788   8.601734
    34  H   10.439191  11.463183  10.931381   9.012495   9.711317
    35  H    7.421132   7.745052   8.625596   6.928105   5.824849
    36  H    9.177183   8.948220  10.281110   9.012497   7.404237
    37  H    8.193500   9.051717   9.456788   7.199497   6.776087
    38  H    9.289313  10.383179  10.451178   8.011077   8.061967
    39  H    5.204552   6.581413   5.850213   3.812483   4.975338
                   11         12         13         14         15
    11  H    0.000000
    12  H    1.573484   0.000000
    13  H    2.433472   3.886794   0.000000
    14  H    3.873546   5.176659   1.564694   0.000000
    15  H    3.047539   3.560369   3.984880   5.090272   0.000000
    16  H    4.113850   3.975600   5.127399   5.890693   2.243587
    17  H    4.141209   5.377952   2.777734   2.853468   3.335335
    18  H    5.063944   6.024786   3.888690   3.598404   3.940475
    19  H    4.306815   5.452487   4.486607   5.727562   3.979180
    20  H    4.951924   6.292028   3.955759   4.469415   3.718366
    21  Si   6.299294   7.237880   6.289905   7.143231   4.106426
    22  O    7.612371   8.499732   7.696816   8.591883   5.553837
    23  O    6.057825   6.678581   6.523753   7.469836   3.356186
    24  O    7.104637   8.143959   6.614450   7.118912   4.810806
    25  O    5.088565   6.210375   4.963918   5.930437   3.581985
    26  Ca   9.742767  10.737979   9.437887  10.067901   7.620601
    27  O    9.859340  10.537904  10.174790  11.085473   7.551754
    28  O    9.172032  10.210023   9.000905   9.833269   7.693126
    29  O    9.097968  10.303415   8.272224   8.620731   7.236000
    30  O    9.534649  10.385505   9.279290   9.784909   6.917886
    31  H    8.300943   9.299339   8.239664   9.131182   6.724704
    32  H    9.064523  10.201433   8.708247   9.478172   7.842265
    33  H    8.868228   9.565836   9.203382  10.146296   6.601324
    34  H   10.140482  10.715727  10.562169  11.472009   7.656713
    35  H    7.713147   8.852197   7.016768   7.431864   5.649542
    36  H    9.317650  10.612229   8.278282   8.515058   7.700415
    37  H    8.629421   9.517093   8.318480   8.810932   6.043084
    38  H    9.671987  10.392380   9.626468  10.203761   6.908721
    39  H    5.122713   5.712054   5.729648   6.746793   2.389955
                   16         17         18         19         20
    16  H    0.000000
    17  H    4.320896   0.000000
    18  H    4.105236   1.564107   0.000000
    19  H    6.217806   4.698472   6.141463   0.000000
    20  H    5.501001   2.386304   3.664792   3.140841   0.000000
    21  Si   5.911456   4.790537   5.682895   3.386021   2.896310
    22  O    7.361040   6.358007   7.277437   4.099584   4.270717
    23  O    4.800666   4.994636   5.597739   4.141639   3.795233
    24  O    6.274824   4.521196   5.127327   4.625386   2.808757
    25  O    5.697744   4.018846   5.250549   1.911366   2.015480
    26  Ca   9.254714   7.742546   8.491040   6.138568   5.605976
    27  O    9.049602   8.705495   9.422371   6.467774   6.746178
    28  O    9.692304   8.018335   9.135549   5.004155   5.662429
    29  O    8.867491   6.425299   7.164508   5.782402   4.356220
    30  O    8.049837   7.091382   7.410495   6.827992   5.506811
    31  H    8.716120   7.236099   8.343657   4.233102   4.928730
    32  H    9.913201   7.864671   9.061316   4.833018   5.480735
    33  H    8.179759   7.806616   8.577706   5.520898   5.861660
    34  H    8.956553   8.986822   9.574895   7.041079   7.191962
    35  H    7.197939   4.998522   5.682955   4.878368   3.069854
    36  H    9.376168   6.536508   7.328193   5.995475   4.487995
    37  H    7.214042   6.107277   6.448937   6.097526   4.577872
    38  H    7.880714   7.454668   7.689967   7.162176   6.014762
    39  H    3.966700   4.400395   5.046250   3.758047   3.521131
                   21         22         23         24         25
    21  Si   0.000000
    22  O    1.623364   0.000000
    23  O    1.677003   2.706432   0.000000
    24  O    1.704287   2.660784   2.656899   0.000000
    25  O    1.608633   2.748103   2.677056   2.723312   0.000000
    26  Ca   3.534177   2.401658   4.638138   3.385031   4.693184
    27  O    3.954896   2.557265   4.294436   4.566018   5.265280
    28  O    3.883667   2.561625   5.230111   4.543810   4.309379
    29  O    3.521708   3.286012   4.937873   2.639130   4.244308
    30  O    3.503351   3.240651   3.894931   2.701992   5.012871
    31  H    2.958674   1.671202   4.273830   3.837809   3.424254
    32  H    4.194694   3.146733   5.688585   4.760139   4.316602
    33  H    3.030705   1.674256   3.405478   3.860235   4.310458
    34  H    4.346830   3.178907   4.346470   4.874046   5.765696
    35  H    2.260019   2.765577   3.529175   0.996337   3.083924
    36  H    4.188544   4.036558   5.690649   3.306427   4.624069
    37  H    2.774823   2.935984   3.216182   1.772004   4.225782
    38  H    3.792625   3.529063   3.784555   3.245499   5.380123
    39  H    2.159300   3.424103   0.978686   3.152394   2.550138
                   26         27         28         29         30
    26  Ca   0.000000
    27  O    2.539991   0.000000
    28  O    2.524743   3.375863   0.000000
    29  O    2.217668   4.600582   3.489570   0.000000
    30  O    2.471509   3.335782   4.775120   3.074506   0.000000
    31  H    2.491904   3.077847   0.994201   3.378641   4.360519
    32  H    3.115349   4.310762   0.958678   3.493407   5.341470
    33  H    2.513852   0.993028   3.092713   4.265021   3.212131
    34  H    3.206572   0.958144   4.324792   5.195221   3.338491
    35  H    2.900465   4.605787   4.089331   1.681002   2.732675
    36  H    3.006336   5.446223   3.839560   0.954843   3.991061
    37  H    2.769345   3.742775   4.761544   2.839470   0.985055
    38  H    3.098214   3.208281   5.285644   3.998402   0.959012
    39  H    5.478840   5.198867   5.831917   5.551039   4.784320
                   31         32         33         34         35
    31  H    0.000000
    32  H    1.570325   0.000000
    33  H    2.527282   3.966523   0.000000
    34  H    3.968724   5.251529   1.574640   0.000000
    35  H    3.555306   4.200408   4.003950   5.044320   0.000000
    36  H    3.861922   3.608591   5.111926   6.091513   2.310971
    37  H    4.206679   5.227528   3.353250   3.828394   1.997209
    38  H    4.807361   5.949875   3.153082   2.943143   3.496837
    39  H    4.849307   6.188640   4.275654   5.275137   4.047391
                   36         37         38         39
    36  H    0.000000
    37  H    3.729691   0.000000
    38  H    4.928577   1.556794   0.000000
    39  H    6.213520   4.024335   4.707064   0.000000
 Symmetry turned off by external request.
 Stoichiometry    Ca2H19O16Si2(1-)
 Framework group  C1[X(Ca2H19O16Si2)]
 Deg. of freedom   111
 Full point group                 C1      NOp   1
 Rotational constants (GHZ):           0.4430231           0.0849541           0.0844044
 Standard basis: 6-311++G(d,p) (5D, 7F)
   631 basis functions,   997 primitive gaussians,   653 cartesian basis functions
   108 alpha electrons      108 beta electrons
       nuclear repulsion energy      2881.0902549669 Hartrees.
 NAtoms=   39 NActive=   39 NUniq=   39 SFac= 1.00D+00 NAtFMM=   60 NAOKFM=F Big=F
 Integral buffers will be    131072 words long.
 Raffenetti 2 integral format.
 Two-electron integral symmetry is turned off.
 Nuclear repulsion after empirical dispersion term =     2881.0581860316 Hartrees.
 Force inversion solution in PCM.
 ------------------------------------------------------------------------------
 Polarizable Continuum Model (PCM)
 =================================
 Model                : C-PCM.
 Atomic radii         : UFF (Universal Force Field).
 Polarization charges : Total charges.
 Charge compensation  : None.
 Solution method      : Matrix inversion.
 Cavity type          : Scaled VdW (van der Waals Surface) (Alpha=1.100).
 Cavity algorithm     : GePol (No added spheres)
                        Default sphere list used, NSphG=   39.
                        Lebedev-Laikov grids with approx.  5.0 points / Ang**2.
                        Smoothing algorithm: York/Karplus (Gamma=1.0000).
                        Polarization charges: spherical gaussians, with
                                              point-specific exponents (IZeta= 3).
                        Self-potential: point-specific (ISelfS= 7).
                        Self-field    : sphere-specific E.n sum rule (ISelfD= 2).
 1st derivatives      : Analytical E(r).r(x)/FMM algorithm (CHGder, D1EAlg=3).
                        Cavity 1st derivative terms included.
 2nd derivatives      : Analytical E(r).r(xy)/FMM algorithm (CHGder, D2EAlg=3).
                        Cavity 2nd derivative terms included.
 Solvent              : Water, Eps=  78.355300 Eps(inf)=   1.777849
 ------------------------------------------------------------------------------
 One-electron integrals computed using PRISM.
 NBasis=   631 RedAO= T EigKep=  6.83D-05  NBF=   631
 NBsUse=   631 1.00D-06 EigRej= -1.00D+00 NBFU=   631
 ExpMin= 7.10D-03 ExpMax= 2.03D+05 ExpMxC= 6.92D+03 IAcc=3 IRadAn=         5 AccDes= 0.00D+00
 Harris functional with IExCor= 4639 and IRadAn=       5 diagonalized for initial guess.
 HarFok:  IExCor= 4639 AccDes= 0.00D+00 IRadAn=         5 IDoV= 1 UseB2=F ITyADJ=14
 ICtDFT=  3500011 ScaDFX=  1.000000  1.000000  1.000000  1.000000
 FoFCou: FMM=F IPFlag=           0 FMFlag=      100000 FMFlg1=           0
         NFxFlg=           0 DoJE=T BraDBF=F KetDBF=T FulRan=T
         wScrn=  0.000000 ICntrl=       500 IOpCl=  0 I1Cent=   200000004 NGrid=           0
         NMat0=    1 NMatS0=      1 NMatT0=    0 NMatD0=    1 NMtDS0=    0 NMtDT0=    0
 Symmetry not used in FoFCou.
 Requested convergence on RMS density matrix=1.00D-08 within 128 cycles.
 Requested convergence on MAX density matrix=1.00D-06.
 Requested convergence on             energy=1.00D-06.
 No special actions if energy rises.
 Inv3:  Mode=1 IEnd=    33607227.
 Iteration    1 A*A^-1 deviation from unit magnitude is 1.07D-14 for   3197.
 Iteration    1 A*A^-1 deviation from orthogonality  is 7.99D-15 for   2600    988.
 Iteration    1 A^-1*A deviation from unit magnitude is 1.07D-14 for   3197.
 Iteration    1 A^-1*A deviation from orthogonality  is 5.39D-15 for   2834   2526.
 Error on total polarization charges =  0.02389
 SCF Done:  E(RwB97XD) =  -3150.31789421     A.U. after   14 cycles
            NFock= 14  Conv=0.51D-08     -V/T= 2.0022
 DoSCS=F DFT=T ScalE2(SS,OS)=  1.000000  1.000000
 Range of M.O.s used for correlation:     1   631
 NBasis=   631 NAE=   108 NBE=   108 NFC=     0 NFV=     0
 NROrb=    631 NOA=   108 NOB=   108 NVA=   523 NVB=   523

 **** Warning!!: The largest alpha MO coefficient is  0.24263508D+02

 Symmetrizing basis deriv contribution to polar:
 IMax=3 JMax=2 DiffMx= 0.00D+00
 G2DrvN: will do    40 centers at a time, making    1 passes.
 Calling FoFCou, ICntrl=  3107 FMM=F I1Cent=   0 AccDes= 0.00D+00.
 NEqPCM:  Using equilibrium solvation (IEInf=0, Eps=  78.3553, EpsInf=   1.7778)
 G2PCM: DoFxE=T DoFxN=T DoGrad=T DoDP/DQ/DG/TGxP=FFFF NFrqRd=   0 IEInf=0 SqF1=F DoCFld=F IF1Alg=4.
 End of G2Drv F.D. properties file   721 does not exist.
 End of G2Drv F.D. properties file   722 does not exist.
 End of G2Drv F.D. properties file   788 does not exist.
          IDoAtm=111111111111111111111111111111111111111
 NEqPCM:  Using equilibrium solvation (IEInf=0, Eps=  78.3553, EpsInf=   1.7778)
          Differentiating once with respect to nuclear coordinates.
 CalDSu exits because no D1Ps are significant.
          There are   120 degrees of freedom in the 1st order CPHF.  IDoFFX=6 NUNeed=     0.
    114 vectors produced by pass  0 Test12= 5.65D-14 1.00D-09 XBig12= 1.10D-01 4.13D-02.
 AX will form   114 AO Fock derivatives at one time.
    114 vectors produced by pass  1 Test12= 5.65D-14 1.00D-09 XBig12= 3.06D-02 1.59D-02.
    114 vectors produced by pass  2 Test12= 5.65D-14 1.00D-09 XBig12= 7.78D-04 2.34D-03.
    114 vectors produced by pass  3 Test12= 5.65D-14 1.00D-09 XBig12= 1.12D-05 3.76D-04.
    114 vectors produced by pass  4 Test12= 5.65D-14 1.00D-09 XBig12= 1.21D-07 3.48D-05.
    114 vectors produced by pass  5 Test12= 5.65D-14 1.00D-09 XBig12= 1.02D-09 1.99D-06.
    114 vectors produced by pass  6 Test12= 5.65D-14 1.00D-09 XBig12= 8.31D-12 1.98D-07.
     60 vectors produced by pass  7 Test12= 5.65D-14 1.00D-09 XBig12= 6.80D-14 2.08D-08.
      4 vectors produced by pass  8 Test12= 5.65D-14 1.00D-09 XBig12= 4.84D-16 2.57D-09.
 InvSVY:  IOpt=1 It=  1 EMax= 6.11D-16
 Solved reduced A of dimension   862 with   120 vectors.
 End of Minotr F.D. properties file   721 does not exist.
 End of Minotr F.D. properties file   722 does not exist.
 End of Minotr F.D. properties file   788 does not exist.

 **********************************************************************

            Population analysis using the SCF Density.

 **********************************************************************

 Alpha  occ. eigenvalues -- -145.47827-145.47088 -66.28112 -66.24837 -19.25584
 Alpha  occ. eigenvalues --  -19.25271 -19.24600 -19.24567 -19.23732 -19.23574
 Alpha  occ. eigenvalues --  -19.21997 -19.20699 -19.20300 -19.19869 -19.19802
 Alpha  occ. eigenvalues --  -19.16368 -19.16348 -19.16226 -19.15137 -19.14918
 Alpha  occ. eigenvalues --  -15.47390 -15.46648 -12.59303 -12.59290 -12.59243
 Alpha  occ. eigenvalues --  -12.58556 -12.58549 -12.58506  -5.40208  -5.37496
 Alpha  occ. eigenvalues --   -3.74767  -3.74719  -3.74693  -3.72066  -3.72016
 Alpha  occ. eigenvalues --   -3.71887  -1.82480  -1.81800  -1.12856  -1.12491
 Alpha  occ. eigenvalues --   -1.12139  -1.11513  -1.11269  -1.10491  -1.09447
 Alpha  occ. eigenvalues --   -1.09144  -1.08756  -1.08703  -1.08300  -1.08104
 Alpha  occ. eigenvalues --   -1.07677  -1.07091  -1.06386  -1.05405  -1.04277
 Alpha  occ. eigenvalues --   -0.98826  -0.98349  -0.98298  -0.97129  -0.96357
 Alpha  occ. eigenvalues --   -0.63676  -0.63541  -0.63224  -0.62850  -0.62320
 Alpha  occ. eigenvalues --   -0.61068  -0.60020  -0.59476  -0.56570  -0.55713
 Alpha  occ. eigenvalues --   -0.54469  -0.52469  -0.50907  -0.50255  -0.49260
 Alpha  occ. eigenvalues --   -0.48935  -0.48615  -0.48292  -0.48266  -0.47597
 Alpha  occ. eigenvalues --   -0.46096  -0.45922  -0.45513  -0.44064  -0.43252
 Alpha  occ. eigenvalues --   -0.42610  -0.42395  -0.41679  -0.41570  -0.41094
 Alpha  occ. eigenvalues --   -0.40919  -0.40566  -0.40024  -0.39636  -0.38708
 Alpha  occ. eigenvalues --   -0.38344  -0.37193  -0.36605  -0.35906  -0.34997
 Alpha  occ. eigenvalues --   -0.34423  -0.34300  -0.33951  -0.33495  -0.33400
 Alpha  occ. eigenvalues --   -0.33187  -0.32870  -0.32278
 Alpha virt. eigenvalues --    0.01463   0.01563   0.01946   0.01989   0.02338
 Alpha virt. eigenvalues --    0.02360   0.02389   0.03284   0.05451   0.05602
 Alpha virt. eigenvalues --    0.06705   0.06846   0.06949   0.07105   0.07287
 Alpha virt. eigenvalues --    0.07806   0.08107   0.08376   0.08656   0.08844
 Alpha virt. eigenvalues --    0.09359   0.09950   0.10139   0.10360   0.10731
 Alpha virt. eigenvalues --    0.11776   0.12108   0.12509   0.12720   0.13000
 Alpha virt. eigenvalues --    0.13180   0.13955   0.14409   0.14617   0.14837
 Alpha virt. eigenvalues --    0.15876   0.16238   0.17007   0.17205   0.17371
 Alpha virt. eigenvalues --    0.17427   0.17775   0.18031   0.18168   0.18259
 Alpha virt. eigenvalues --    0.18390   0.18827   0.19029   0.19812   0.21159
 Alpha virt. eigenvalues --    0.21326   0.21921   0.22150   0.22472   0.22711
 Alpha virt. eigenvalues --    0.22888   0.23147   0.23755   0.23801   0.24091
 Alpha virt. eigenvalues --    0.24568   0.24823   0.25260   0.25287   0.25736
 Alpha virt. eigenvalues --    0.26109   0.26409   0.26510   0.26799   0.27178
 Alpha virt. eigenvalues --    0.27264   0.27692   0.28058   0.28652   0.28905
 Alpha virt. eigenvalues --    0.29375   0.29459   0.30054   0.30119   0.30721
 Alpha virt. eigenvalues --    0.31013   0.31093   0.31332   0.31533   0.31847
 Alpha virt. eigenvalues --    0.32168   0.32444   0.32860   0.33100   0.33478
 Alpha virt. eigenvalues --    0.33637   0.33766   0.34037   0.34209   0.34293
 Alpha virt. eigenvalues --    0.34521   0.34793   0.35323   0.35518   0.35890
 Alpha virt. eigenvalues --    0.36135   0.36258   0.36843   0.37272   0.37413
 Alpha virt. eigenvalues --    0.37538   0.38068   0.38118   0.38612   0.38785
 Alpha virt. eigenvalues --    0.38922   0.39264   0.39348   0.39781   0.40066
 Alpha virt. eigenvalues --    0.40723   0.41370   0.41671   0.42389   0.42776
 Alpha virt. eigenvalues --    0.42850   0.43307   0.43579   0.43996   0.44906
 Alpha virt. eigenvalues --    0.45144   0.45512   0.46110   0.46309   0.46815
 Alpha virt. eigenvalues --    0.47615   0.47669   0.47873   0.48498   0.48537
 Alpha virt. eigenvalues --    0.49443   0.49494   0.49995   0.51404   0.51525
 Alpha virt. eigenvalues --    0.52104   0.52605   0.53558   0.53773   0.54029
 Alpha virt. eigenvalues --    0.54732   0.56124   0.56335   0.57177   0.58596
 Alpha virt. eigenvalues --    0.58897   0.59567   0.61442   0.61781   0.62662
 Alpha virt. eigenvalues --    0.63439   0.64847   0.65275   0.65511   0.65891
 Alpha virt. eigenvalues --    0.66298   0.66752   0.67513   0.68168   0.68743
 Alpha virt. eigenvalues --    0.68958   0.70738   0.71135   0.71767   0.73895
 Alpha virt. eigenvalues --    0.74500   0.74922   0.76212   0.76449   0.79169
 Alpha virt. eigenvalues --    0.80507   0.81125   0.84751   0.85557   0.87146
 Alpha virt. eigenvalues --    0.87367   0.88752   0.89557   0.91259   0.93253
 Alpha virt. eigenvalues --    0.96789   0.97598   1.01432   1.04050   1.04197
 Alpha virt. eigenvalues --    1.05078   1.07015   1.08107   1.08774   1.09149
 Alpha virt. eigenvalues --    1.10057   1.10731   1.11174   1.11698   1.13261
 Alpha virt. eigenvalues --    1.13892   1.14413   1.14673   1.16231   1.16665
 Alpha virt. eigenvalues --    1.17973   1.18203   1.18667   1.18939   1.19654
 Alpha virt. eigenvalues --    1.19928   1.20161   1.20722   1.21189   1.22476
 Alpha virt. eigenvalues --    1.22612   1.23539   1.23730   1.24458   1.24919
 Alpha virt. eigenvalues --    1.25261   1.26810   1.26909   1.27654   1.28184
 Alpha virt. eigenvalues --    1.28553   1.28918   1.29351   1.29547   1.30195
 Alpha virt. eigenvalues --    1.30963   1.31312   1.31603   1.31834   1.31884
 Alpha virt. eigenvalues --    1.32694   1.32940   1.34687   1.34740   1.35058
 Alpha virt. eigenvalues --    1.35554   1.36038   1.37004   1.37676   1.38767
 Alpha virt. eigenvalues --    1.39294   1.39978   1.41850   1.42207   1.44139
 Alpha virt. eigenvalues --    1.44511   1.45982   1.47083   1.47879   1.48723
 Alpha virt. eigenvalues --    1.49278   1.49719   1.50523   1.51158   1.52520
 Alpha virt. eigenvalues --    1.52861   1.53742   1.54982   1.55417   1.55842
 Alpha virt. eigenvalues --    1.56683   1.57803   1.58355   1.59805   1.60266
 Alpha virt. eigenvalues --    1.61151   1.61648   1.62087   1.62661   1.63509
 Alpha virt. eigenvalues --    1.65045   1.65806   1.67733   1.68375   1.68643
 Alpha virt. eigenvalues --    1.69773   1.70078   1.70809   1.71547   1.72834
 Alpha virt. eigenvalues --    1.73507   1.74503   1.76133   1.76791   1.77403
 Alpha virt. eigenvalues --    1.77814   1.78980   1.79192   1.80468   1.81238
 Alpha virt. eigenvalues --    1.83117   1.84350   1.85766   1.86882   1.88110
 Alpha virt. eigenvalues --    1.89033   1.91427   1.92042   1.94726   1.95464
 Alpha virt. eigenvalues --    1.95805   1.96667   1.98316   2.00570   2.01445
 Alpha virt. eigenvalues --    2.03614   2.04737   2.08665   2.16499   2.16512
 Alpha virt. eigenvalues --    2.17412   2.17982   2.18193   2.18533   2.23909
 Alpha virt. eigenvalues --    2.24042   2.24783   2.27338   2.27630   2.28286
 Alpha virt. eigenvalues --    2.31083   2.31406   2.33316   2.35132   2.40238
 Alpha virt. eigenvalues --    2.42247   2.44253   2.45452   2.46706   2.58963
 Alpha virt. eigenvalues --    2.60453   2.63594   2.65475   2.67297   2.69660
 Alpha virt. eigenvalues --    2.71446   2.72297   2.75620   2.77599   2.78936
 Alpha virt. eigenvalues --    2.81049   2.83408   2.85612   2.86122   2.89418
 Alpha virt. eigenvalues --    2.91817   2.92295   2.92877   2.97536   2.99577
 Alpha virt. eigenvalues --    3.00365   3.00848   3.01390   3.02063   3.02600
 Alpha virt. eigenvalues --    3.03622   3.05658   3.06777   3.09515   3.10389
 Alpha virt. eigenvalues --    3.12024   3.12359   3.12840   3.13786   3.14158
 Alpha virt. eigenvalues --    3.14537   3.16430   3.17580   3.17677   3.17843
 Alpha virt. eigenvalues --    3.18550   3.20079   3.20820   3.21275   3.21574
 Alpha virt. eigenvalues --    3.22080   3.22605   3.23174   3.23669   3.23978
 Alpha virt. eigenvalues --    3.24924   3.26042   3.26835   3.27685   3.28737
 Alpha virt. eigenvalues --    3.28923   3.29804   3.30091   3.30439   3.33029
 Alpha virt. eigenvalues --    3.34107   3.34325   3.35933   3.36353   3.39248
 Alpha virt. eigenvalues --    3.39582   3.40448   3.41003   3.41592   3.42646
 Alpha virt. eigenvalues --    3.44550   3.45062   3.45484   3.47448   3.48321
 Alpha virt. eigenvalues --    3.48930   3.58699   3.60273   3.66385   3.82294
 Alpha virt. eigenvalues --    3.82602   3.83241   3.84229   3.84397   3.85031
 Alpha virt. eigenvalues --    4.00150   4.01659   4.02485   4.02523   4.02831
 Alpha virt. eigenvalues --    4.03711   4.04308   4.05184   4.05984   4.06430
 Alpha virt. eigenvalues --    4.07277   4.08617   4.08815   4.49212   4.49868
 Alpha virt. eigenvalues --    4.55637   4.55961   4.57036   4.62380   5.12980
 Alpha virt. eigenvalues --    5.14395   5.15651   5.17002   5.17508   5.18546
 Alpha virt. eigenvalues --    5.18709   5.19851   5.20553   5.21408   5.22084
 Alpha virt. eigenvalues --    5.22787   5.23329   5.24393   5.25006   5.26366
 Alpha virt. eigenvalues --    5.27757   5.28208   5.30640   5.32328   5.33985
 Alpha virt. eigenvalues --    5.37638   5.39399   5.41798   5.42535   5.44533
 Alpha virt. eigenvalues --    5.46187   5.47537   5.48293   5.49822   5.51586
 Alpha virt. eigenvalues --    5.53442   5.54987   5.58627   5.60085   5.69504
 Alpha virt. eigenvalues --    5.70020   5.73577   5.75634   5.76242   5.77154
 Alpha virt. eigenvalues --    5.77751   5.78521   5.79767   5.80059   5.80566
 Alpha virt. eigenvalues --    5.81163   5.84344   6.21755   6.22492  11.65526
 Alpha virt. eigenvalues --   11.68656  11.70025  11.73119  11.85136  11.88918
 Alpha virt. eigenvalues --   14.94050  14.94785  50.03519  50.03943  50.04158
 Alpha virt. eigenvalues --   50.05296  50.05328  50.06459  50.10859  50.11600
 Alpha virt. eigenvalues --   50.12702  50.13933  50.14468  50.16430  50.16818
 Alpha virt. eigenvalues --   50.18845  50.19278  50.23610 108.66821 108.67014
 Alpha virt. eigenvalues --  108.70467 108.70909 108.72114 108.75718 141.64673
 Alpha virt. eigenvalues --  141.69927 318.04657 318.05434
          Condensed to atoms (all electrons):
               1          2          3          4          5          6
     1  Si  13.025049   0.071339  -0.136945   0.056171   0.040232   0.017633
     2  O    0.071339   9.263877  -0.046948  -0.051791  -0.126308   0.051375
     3  O   -0.136945  -0.046948   8.595038   0.038477   0.043073  -0.004722
     4  O    0.056171  -0.051791   0.038477   8.676189   0.020891  -0.000536
     5  O    0.040232  -0.126308   0.043073   0.020891   8.457555   0.011685
     6  Ca   0.017633   0.051375  -0.004722  -0.000536   0.011685  18.490982
     7  O   -0.020131  -0.055431   0.001422  -0.000790  -0.001419   0.030864
     8  O   -0.000650  -0.061266   0.000921  -0.003639  -0.002864   0.023073
     9  O    0.001351  -0.008963   0.000111  -0.017952  -0.003098   0.049900
    10  O    0.013471  -0.040192  -0.008299  -0.009167  -0.001701   0.022169
    11  H   -0.000221  -0.004790   0.000067  -0.006285  -0.003463  -0.019654
    12  H    0.001525   0.004931   0.000336   0.001218  -0.000569  -0.013647
    13  H   -0.005349  -0.007040   0.012931   0.007681  -0.012595  -0.027830
    14  H    0.000371   0.004807   0.000300  -0.000156   0.000063  -0.013170
    15  H   -0.054900  -0.070735   0.025222   0.092633   0.001238  -0.032273
    16  H   -0.000490   0.002723  -0.000406   0.005706  -0.000178  -0.016615
    17  H    0.011625   0.002551   0.022161   0.011335   0.008586   0.000935
    18  H    0.007630   0.001808  -0.001703  -0.000848  -0.000767  -0.006594
    19  H    0.066095   0.020648  -0.016966  -0.012518   0.184975  -0.002361
    20  H    0.049457   0.048534   0.114421  -0.018743  -0.032972   0.001029
    21  Si  -0.404022  -0.017668   0.070446   0.025009   0.034819  -0.001796
    22  O   -0.016522  -0.000063   0.008999  -0.006814  -0.001437  -0.000297
    23  O    0.024926  -0.002600  -0.006747   0.016749   0.003584  -0.000176
    24  O    0.029849   0.000147  -0.003056  -0.002803   0.001868   0.000466
    25  O    0.095519  -0.051372   0.018148  -0.011487   0.061477  -0.002788
    26  Ca  -0.001876   0.000221  -0.000598  -0.001423  -0.000857  -0.000485
    27  O    0.001571  -0.000000  -0.000004   0.000018  -0.000003  -0.000037
    28  O   -0.000429   0.000000   0.000056  -0.000006  -0.000051   0.000045
    29  O   -0.003671  -0.000001   0.000655  -0.000015   0.000058   0.000016
    30  O    0.000109  -0.000000   0.000109   0.000027  -0.000025   0.000013
    31  H    0.005135   0.000063  -0.000064  -0.000141  -0.000096   0.000061
    32  H   -0.000871  -0.000035   0.000016   0.000068   0.000184   0.000093
    33  H   -0.006879  -0.000144   0.000665   0.000299   0.000529   0.000216
    34  H    0.000199   0.000004  -0.000008   0.000014  -0.000007   0.000046
    35  H    0.029584   0.000050  -0.015813   0.001113  -0.000729  -0.000219
    36  H    0.000418  -0.000004   0.000205   0.000027   0.000054   0.000054
    37  H   -0.002193   0.000170  -0.000470  -0.000133   0.000126   0.000112
    38  H   -0.000508  -0.000007   0.000059   0.000095  -0.000004   0.000013
    39  H    0.045345   0.012690  -0.008958   0.008997  -0.004449   0.002509
               7          8          9         10         11         12
     1  Si  -0.020131  -0.000650   0.001351   0.013471  -0.000221   0.001525
     2  O   -0.055431  -0.061266  -0.008963  -0.040192  -0.004790   0.004931
     3  O    0.001422   0.000921   0.000111  -0.008299   0.000067   0.000336
     4  O   -0.000790  -0.003639  -0.017952  -0.009167  -0.006285   0.001218
     5  O   -0.001419  -0.002864  -0.003098  -0.001701  -0.003463  -0.000569
     6  Ca   0.030864   0.023073   0.049900   0.022169  -0.019654  -0.013647
     7  O    7.994431   0.002731  -0.002636   0.006148  -0.010687  -0.000753
     8  O    0.002731   8.009223   0.016011  -0.001062   0.282119   0.311845
     9  O   -0.002636   0.016011   8.846088  -0.003370  -0.009892   0.005432
    10  O    0.006148  -0.001062  -0.003370   8.098150  -0.000809  -0.000030
    11  H   -0.010687   0.282119  -0.009892  -0.000809   0.442617  -0.016047
    12  H   -0.000753   0.311845   0.005432  -0.000030  -0.016047   0.419058
    13  H    0.277395  -0.010442   0.003017  -0.003395   0.010479   0.002989
    14  H    0.310528  -0.000829  -0.000352   0.008769   0.003002   0.000008
    15  H   -0.000326   0.005934  -0.024542   0.004054   0.006843  -0.004884
    16  H    0.000334   0.001463   0.228843  -0.000238  -0.001614   0.001277
    17  H   -0.001193  -0.002019  -0.005421   0.231818   0.004056  -0.000242
    18  H    0.002864   0.000158   0.002306   0.302193  -0.000276   0.000009
    19  H   -0.000335  -0.000225  -0.000200   0.000170   0.002226   0.000308
    20  H    0.001072   0.000832  -0.000285  -0.001330  -0.003410   0.000160
    21  Si   0.000728   0.001252  -0.005058   0.001086  -0.004848   0.000086
    22  O    0.000001   0.000000  -0.000031   0.000021   0.000009   0.000005
    23  O   -0.000015   0.000040   0.002089  -0.000065   0.000159   0.000022
    24  O   -0.000011  -0.000002   0.000116   0.000112   0.000078  -0.000009
    25  O   -0.000338   0.000214   0.000265   0.002263   0.002830  -0.000270
    26  Ca   0.000015   0.000000   0.000000  -0.000006   0.000027   0.000077
    27  O   -0.000000   0.000000  -0.000000   0.000000   0.000001  -0.000000
    28  O   -0.000000  -0.000000  -0.000000   0.000000  -0.000002   0.000000
    29  O    0.000000   0.000000  -0.000000   0.000005  -0.000007   0.000000
    30  O    0.000000  -0.000000  -0.000002   0.000004   0.000002  -0.000000
    31  H    0.000003  -0.000001   0.000011   0.000025   0.000010  -0.000001
    32  H   -0.000000   0.000000  -0.000000  -0.000001   0.000000  -0.000000
    33  H   -0.000000  -0.000001   0.000004   0.000000  -0.000005   0.000000
    34  H    0.000000   0.000000   0.000000   0.000000  -0.000000  -0.000000
    35  H   -0.000015  -0.000017   0.000005   0.000448   0.000184  -0.000005
    36  H    0.000000   0.000000   0.000001  -0.000012   0.000001  -0.000000
    37  H    0.000001   0.000002   0.000033  -0.000113  -0.000039   0.000002
    38  H    0.000000  -0.000000  -0.000000   0.000006   0.000001  -0.000000
    39  H    0.000045  -0.000978  -0.002151  -0.001619   0.000540   0.000244
              13         14         15         16         17         18
     1  Si  -0.005349   0.000371  -0.054900  -0.000490   0.011625   0.007630
     2  O   -0.007040   0.004807  -0.070735   0.002723   0.002551   0.001808
     3  O    0.012931   0.000300   0.025222  -0.000406   0.022161  -0.001703
     4  O    0.007681  -0.000156   0.092633   0.005706   0.011335  -0.000848
     5  O   -0.012595   0.000063   0.001238  -0.000178   0.008586  -0.000767
     6  Ca  -0.027830  -0.013170  -0.032273  -0.016615   0.000935  -0.006594
     7  O    0.277395   0.310528  -0.000326   0.000334  -0.001193   0.002864
     8  O   -0.010442  -0.000829   0.005934   0.001463  -0.002019   0.000158
     9  O    0.003017  -0.000352  -0.024542   0.228843  -0.005421   0.002306
    10  O   -0.003395   0.008769   0.004054  -0.000238   0.231818   0.302193
    11  H    0.010479   0.003002   0.006843  -0.001614   0.004056  -0.000276
    12  H    0.002989   0.000008  -0.004884   0.001277  -0.000242   0.000009
    13  H    0.464898  -0.011923   0.006115  -0.000723   0.003063  -0.002968
    14  H   -0.011923   0.419118  -0.000080   0.000065  -0.008319   0.001776
    15  H    0.006115  -0.000080   0.592024  -0.003521  -0.004999  -0.000273
    16  H   -0.000723   0.000065  -0.003521   0.479220   0.000446   0.000466
    17  H    0.003063  -0.008319  -0.004999   0.000446   0.443504  -0.016773
    18  H   -0.002968   0.001776  -0.000273   0.000466  -0.016773   0.393200
    19  H    0.002954   0.000275  -0.005363   0.000211  -0.002935   0.000261
    20  H   -0.002812   0.002053  -0.012137   0.000944  -0.035283   0.001003
    21  Si  -0.003271   0.000236   0.065163   0.000655   0.008393  -0.002391
    22  O    0.000149  -0.000004   0.002653  -0.000009   0.000887  -0.000027
    23  O    0.000147  -0.000018  -0.017248   0.000933  -0.000270  -0.000050
    24  O   -0.000188   0.000017  -0.003961  -0.000021  -0.002831   0.000135
    25  O    0.003399  -0.000312   0.036949  -0.000532   0.004426  -0.000044
    26  Ca   0.000212   0.000040   0.000139   0.000118  -0.000216  -0.000011
    27  O    0.000001  -0.000000   0.000027   0.000001  -0.000003   0.000001
    28  O    0.000001  -0.000000   0.000021   0.000000   0.000030  -0.000001
    29  O   -0.000008   0.000001   0.000015  -0.000000  -0.000081   0.000008
    30  O    0.000002   0.000000   0.000278  -0.000009  -0.000116   0.000021
    31  H   -0.000008   0.000003  -0.000042  -0.000004  -0.000111   0.000005
    32  H   -0.000000  -0.000000  -0.000003  -0.000000   0.000008  -0.000001
    33  H    0.000001  -0.000000   0.000500  -0.000018   0.000153  -0.000017
    34  H   -0.000001   0.000000   0.000004   0.000000  -0.000005   0.000001
    35  H   -0.000002   0.000022  -0.001907  -0.000017  -0.001846  -0.000004
    36  H   -0.000003  -0.000001  -0.000002   0.000000   0.000046   0.000009
    37  H   -0.000059  -0.000000  -0.000976   0.000056   0.000280   0.000032
    38  H   -0.000002   0.000000   0.000043  -0.000006   0.000018  -0.000007
    39  H   -0.000674   0.000002  -0.045059  -0.002258   0.000582   0.000350
              19         20         21         22         23         24
     1  Si   0.066095   0.049457  -0.404022  -0.016522   0.024926   0.029849
     2  O    0.020648   0.048534  -0.017668  -0.000063  -0.002600   0.000147
     3  O   -0.016966   0.114421   0.070446   0.008999  -0.006747  -0.003056
     4  O   -0.012518  -0.018743   0.025009  -0.006814   0.016749  -0.002803
     5  O    0.184975  -0.032972   0.034819  -0.001437   0.003584   0.001868
     6  Ca  -0.002361   0.001029  -0.001796  -0.000297  -0.000176   0.000466
     7  O   -0.000335   0.001072   0.000728   0.000001  -0.000015  -0.000011
     8  O   -0.000225   0.000832   0.001252   0.000000   0.000040  -0.000002
     9  O   -0.000200  -0.000285  -0.005058  -0.000031   0.002089   0.000116
    10  O    0.000170  -0.001330   0.001086   0.000021  -0.000065   0.000112
    11  H    0.002226  -0.003410  -0.004848   0.000009   0.000159   0.000078
    12  H    0.000308   0.000160   0.000086   0.000005   0.000022  -0.000009
    13  H    0.002954  -0.002812  -0.003271   0.000149   0.000147  -0.000188
    14  H    0.000275   0.002053   0.000236  -0.000004  -0.000018   0.000017
    15  H   -0.005363  -0.012137   0.065163   0.002653  -0.017248  -0.003961
    16  H    0.000211   0.000944   0.000655  -0.000009   0.000933  -0.000021
    17  H   -0.002935  -0.035283   0.008393   0.000887  -0.000270  -0.002831
    18  H    0.000261   0.001003  -0.002391  -0.000027  -0.000050   0.000135
    19  H    0.478005   0.006135  -0.025493  -0.005446   0.003673   0.002382
    20  H    0.006135   0.576577   0.005748  -0.011124   0.002955  -0.000758
    21  Si  -0.025493   0.005748  12.655622   0.036765   0.111422  -0.039590
    22  O   -0.005446  -0.011124   0.036765   9.202758  -0.054347   0.026449
    23  O    0.003673   0.002955   0.111422  -0.054347   8.382589   0.010814
    24  O    0.002382  -0.000758  -0.039590   0.026449   0.010814   8.608810
    25  O   -0.018876  -0.063010   0.237988   0.026602  -0.067446   0.039877
    26  Ca   0.001355   0.001940   0.000243   0.047598   0.000867  -0.031091
    27  O   -0.000084   0.000134  -0.005116  -0.038303  -0.000407  -0.008904
    28  O   -0.000569  -0.000926  -0.008784  -0.033500  -0.000574  -0.001645
    29  O   -0.000164  -0.000678   0.014749  -0.006172  -0.001542  -0.059572
    30  O    0.000073  -0.000213   0.006256   0.018535  -0.007417   0.019918
    31  H   -0.003433   0.001389   0.025478  -0.031409  -0.000954  -0.000299
    32  H    0.000179  -0.000004   0.002652  -0.000286   0.000807   0.000221
    33  H   -0.000185  -0.001934   0.005464  -0.022593  -0.014313   0.020398
    34  H   -0.000057   0.000091   0.002064   0.000328   0.000149  -0.000222
    35  H    0.002442   0.013216   0.014932  -0.060216   0.035146   0.168422
    36  H   -0.000128  -0.000441   0.000005  -0.000367  -0.000070   0.004223
    37  H   -0.000364   0.002734   0.034613  -0.037687  -0.008406  -0.012499
    38  H   -0.000007  -0.000332   0.010125  -0.005991  -0.002214  -0.012585
    39  H    0.003232   0.004900  -0.076739  -0.003069   0.289114   0.018845
              25         26         27         28         29         30
     1  Si   0.095519  -0.001876   0.001571  -0.000429  -0.003671   0.000109
     2  O   -0.051372   0.000221  -0.000000   0.000000  -0.000001  -0.000000
     3  O    0.018148  -0.000598  -0.000004   0.000056   0.000655   0.000109
     4  O   -0.011487  -0.001423   0.000018  -0.000006  -0.000015   0.000027
     5  O    0.061477  -0.000857  -0.000003  -0.000051   0.000058  -0.000025
     6  Ca  -0.002788  -0.000485  -0.000037   0.000045   0.000016   0.000013
     7  O   -0.000338   0.000015  -0.000000  -0.000000   0.000000   0.000000
     8  O    0.000214   0.000000   0.000000  -0.000000   0.000000  -0.000000
     9  O    0.000265   0.000000  -0.000000  -0.000000  -0.000000  -0.000002
    10  O    0.002263  -0.000006   0.000000   0.000000   0.000005   0.000004
    11  H    0.002830   0.000027   0.000001  -0.000002  -0.000007   0.000002
    12  H   -0.000270   0.000077  -0.000000   0.000000   0.000000  -0.000000
    13  H    0.003399   0.000212   0.000001   0.000001  -0.000008   0.000002
    14  H   -0.000312   0.000040  -0.000000  -0.000000   0.000001   0.000000
    15  H    0.036949   0.000139   0.000027   0.000021   0.000015   0.000278
    16  H   -0.000532   0.000118   0.000001   0.000000  -0.000000  -0.000009
    17  H    0.004426  -0.000216  -0.000003   0.000030  -0.000081  -0.000116
    18  H   -0.000044  -0.000011   0.000001  -0.000001   0.000008   0.000021
    19  H   -0.018876   0.001355  -0.000084  -0.000569  -0.000164   0.000073
    20  H   -0.063010   0.001940   0.000134  -0.000926  -0.000678  -0.000213
    21  Si   0.237988   0.000243  -0.005116  -0.008784   0.014749   0.006256
    22  O    0.026602   0.047598  -0.038303  -0.033500  -0.006172   0.018535
    23  O   -0.067446   0.000867  -0.000407  -0.000574  -0.001542  -0.007417
    24  O    0.039877  -0.031091  -0.008904  -0.001645  -0.059572   0.019918
    25  O    8.824243  -0.011217   0.000255   0.002648  -0.005315   0.000808
    26  Ca  -0.011217  18.487613   0.026785   0.028723   0.050308   0.006294
    27  O    0.000255   0.026785   8.019356  -0.001073  -0.003435   0.032541
    28  O    0.002648   0.028723  -0.001073   7.975959   0.012192  -0.002542
    29  O   -0.005315   0.050308  -0.003435   0.012192   8.827481  -0.005078
    30  O    0.000808   0.006294   0.032541  -0.002542  -0.005078   7.989261
    31  H   -0.010363  -0.009553   0.000988   0.284781  -0.017833   0.002732
    32  H   -0.001206  -0.014519  -0.001374   0.322838   0.002578  -0.000285
    33  H    0.002924  -0.020946   0.270299  -0.001555   0.004074  -0.018867
    34  H    0.000187  -0.014561   0.306387  -0.000900  -0.000251   0.002645
    35  H   -0.034037  -0.007992   0.004175  -0.005428   0.007708  -0.006664
    36  H    0.000534  -0.017506   0.000128  -0.000903   0.247377  -0.002702
    37  H    0.005831  -0.007832  -0.006078   0.000935   0.004986   0.220382
    38  H    0.000367  -0.012100  -0.002438   0.000189  -0.001258   0.306515
    39  H   -0.027324  -0.000636  -0.001067   0.000072   0.000250   0.000208
              31         32         33         34         35         36
     1  Si   0.005135  -0.000871  -0.006879   0.000199   0.029584   0.000418
     2  O    0.000063  -0.000035  -0.000144   0.000004   0.000050  -0.000004
     3  O   -0.000064   0.000016   0.000665  -0.000008  -0.015813   0.000205
     4  O   -0.000141   0.000068   0.000299   0.000014   0.001113   0.000027
     5  O   -0.000096   0.000184   0.000529  -0.000007  -0.000729   0.000054
     6  Ca   0.000061   0.000093   0.000216   0.000046  -0.000219   0.000054
     7  O    0.000003  -0.000000  -0.000000   0.000000  -0.000015   0.000000
     8  O   -0.000001   0.000000  -0.000001   0.000000  -0.000017   0.000000
     9  O    0.000011  -0.000000   0.000004   0.000000   0.000005   0.000001
    10  O    0.000025  -0.000001   0.000000   0.000000   0.000448  -0.000012
    11  H    0.000010   0.000000  -0.000005  -0.000000   0.000184   0.000001
    12  H   -0.000001  -0.000000   0.000000  -0.000000  -0.000005  -0.000000
    13  H   -0.000008  -0.000000   0.000001  -0.000001  -0.000002  -0.000003
    14  H    0.000003  -0.000000  -0.000000   0.000000   0.000022  -0.000001
    15  H   -0.000042  -0.000003   0.000500   0.000004  -0.001907  -0.000002
    16  H   -0.000004  -0.000000  -0.000018   0.000000  -0.000017   0.000000
    17  H   -0.000111   0.000008   0.000153  -0.000005  -0.001846   0.000046
    18  H    0.000005  -0.000001  -0.000017   0.000001  -0.000004   0.000009
    19  H   -0.003433   0.000179  -0.000185  -0.000057   0.002442  -0.000128
    20  H    0.001389  -0.000004  -0.001934   0.000091   0.013216  -0.000441
    21  Si   0.025478   0.002652   0.005464   0.002064   0.014932   0.000005
    22  O   -0.031409  -0.000286  -0.022593   0.000328  -0.060216  -0.000367
    23  O   -0.000954   0.000807  -0.014313   0.000149   0.035146  -0.000070
    24  O   -0.000299   0.000221   0.020398  -0.000222   0.168422   0.004223
    25  O   -0.010363  -0.001206   0.002924   0.000187  -0.034037   0.000534
    26  Ca  -0.009553  -0.014519  -0.020946  -0.014561  -0.007992  -0.017506
    27  O    0.000988  -0.001374   0.270299   0.306387   0.004175   0.000128
    28  O    0.284781   0.322838  -0.001555  -0.000900  -0.005428  -0.000903
    29  O   -0.017833   0.002578   0.004074  -0.000251   0.007708   0.247377
    30  O    0.002732  -0.000285  -0.018867   0.002645  -0.006664  -0.002702
    31  H    0.445508  -0.014848  -0.012118   0.003332   0.009574   0.001947
    32  H   -0.014848   0.400865   0.003576   0.000012   0.000828   0.000195
    33  H   -0.012118   0.003576   0.466597  -0.009097  -0.006947  -0.000366
    34  H    0.003332   0.000012  -0.009097   0.407836   0.000055   0.000066
    35  H    0.009574   0.000828  -0.006947   0.000055   0.556870  -0.002324
    36  H    0.001947   0.000195  -0.000366   0.000066  -0.002324   0.448695
    37  H   -0.001209   0.000184   0.002831   0.001433  -0.009569   0.003742
    38  H   -0.000512   0.000038   0.003315  -0.002480   0.005058  -0.000105
    39  H    0.000933   0.000012   0.001239  -0.000145   0.003328  -0.000044
              37         38         39
     1  Si  -0.002193  -0.000508   0.045345
     2  O    0.000170  -0.000007   0.012690
     3  O   -0.000470   0.000059  -0.008958
     4  O   -0.000133   0.000095   0.008997
     5  O    0.000126  -0.000004  -0.004449
     6  Ca   0.000112   0.000013   0.002509
     7  O    0.000001   0.000000   0.000045
     8  O    0.000002  -0.000000  -0.000978
     9  O    0.000033  -0.000000  -0.002151
    10  O   -0.000113   0.000006  -0.001619
    11  H   -0.000039   0.000001   0.000540
    12  H    0.000002  -0.000000   0.000244
    13  H   -0.000059  -0.000002  -0.000674
    14  H   -0.000000   0.000000   0.000002
    15  H   -0.000976   0.000043  -0.045059
    16  H    0.000056  -0.000006  -0.002258
    17  H    0.000280   0.000018   0.000582
    18  H    0.000032  -0.000007   0.000350
    19  H   -0.000364  -0.000007   0.003232
    20  H    0.002734  -0.000332   0.004900
    21  Si   0.034613   0.010125  -0.076739
    22  O   -0.037687  -0.005991  -0.003069
    23  O   -0.008406  -0.002214   0.289114
    24  O   -0.012499  -0.012585   0.018845
    25  O    0.005831   0.000367  -0.027324
    26  Ca  -0.007832  -0.012100  -0.000636
    27  O   -0.006078  -0.002438  -0.001067
    28  O    0.000935   0.000189   0.000072
    29  O    0.004986  -0.001258   0.000250
    30  O    0.220382   0.306515   0.000208
    31  H   -0.001209  -0.000512   0.000933
    32  H    0.000184   0.000038   0.000012
    33  H    0.002831   0.003315   0.001239
    34  H    0.001433  -0.002480  -0.000145
    35  H   -0.009569   0.005058   0.003328
    36  H    0.003742  -0.000105  -0.000044
    37  H    0.503291   0.003511   0.002393
    38  H    0.003511   0.403239   0.000361
    39  H    0.002393   0.000361   0.437708
 Mulliken charges:
               1
     1  Si   1.061051
     2  O   -0.940577
     3  O   -0.702132
     4  O   -0.817470
     5  O   -0.677408
     6  Ca   1.439913
     7  O   -0.534502
     8  O   -0.571826
     9  O   -1.071630
    10  O   -0.619505
    11  H    0.326797
    12  H    0.286924
    13  H    0.293856
    14  H    0.283709
    15  H    0.443377
    16  H    0.303196
    17  H    0.327757
    18  H    0.318519
    19  H    0.320110
    20  H    0.351069
    21  Si   1.222778
    22  O   -1.036043
    23  O   -0.701309
    24  O   -0.773102
    25  O   -1.061816
    26  Ca   1.500850
    27  O   -0.594342
    28  O   -0.569606
    29  O   -1.067381
    30  O   -0.562813
    31  H    0.321021
    32  H    0.298081
    33  H    0.332903
    34  H    0.302884
    35  H    0.300593
    36  H    0.317252
    37  H    0.299946
    38  H    0.307605
    39  H    0.341271
 Sum of Mulliken charges =  -1.00000
 Mulliken charges with hydrogens summed into heavy atoms:
               1
     1  Si   1.061051
     2  O   -0.940577
     3  O   -0.351063
     4  O   -0.374094
     5  O   -0.357298
     6  Ca   1.439913
     7  O    0.043064
     8  O    0.041895
     9  O   -0.768434
    10  O    0.026770
    21  Si   1.222778
    22  O   -1.036043
    23  O   -0.360038
    24  O   -0.472508
    25  O   -1.061816
    26  Ca   1.500850
    27  O    0.041445
    28  O    0.049496
    29  O   -0.750129
    30  O    0.044738
 APT charges:
               1
     1  Si   0.774321
     2  O   -0.669544
     3  O   -0.640659
     4  O   -0.939393
     5  O   -0.639494
     6  Ca   1.390005
     7  O   -0.186374
     8  O   -0.335972
     9  O   -1.796466
    10  O   -0.562994
    11  H   -0.396045
    12  H    0.684218
    13  H   -0.360740
    14  H    0.506940
    15  H    0.809445
    16  H    0.971465
    17  H   -0.287110
    18  H    0.850471
    19  H    0.271301
    20  H    0.334723
    21  Si   1.020941
    22  O   -0.523656
    23  O   -0.265506
    24  O   -0.868374
    25  O   -1.501782
    26  Ca   1.347518
    27  O   -0.602033
    28  O    0.003090
    29  O   -1.408081
    30  O   -0.259287
    31  H   -0.302662
    32  H    0.307173
    33  H   -0.572800
    34  H    1.078365
    35  H    0.742568
    36  H    0.636186
    37  H   -0.586833
    38  H    0.859707
    39  H    0.117369
 Sum of APT charges =  -1.00000
 APT charges with hydrogens summed into heavy atoms:
               1
     1  Si   0.774321
     2  O   -0.669544
     3  O   -0.305936
     4  O   -0.129947
     5  O   -0.368193
     6  Ca   1.390005
     7  O   -0.040174
     8  O   -0.047800
     9  O   -0.825000
    10  O    0.000367
    21  Si   1.020941
    22  O   -0.523656
    23  O   -0.148137
    24  O   -0.125807
    25  O   -1.501782
    26  Ca   1.347518
    27  O   -0.096468
    28  O    0.007601
    29  O   -0.771895
    30  O    0.013588
 Electronic spatial extent (au):  <R**2>=          14058.9400
 Charge=             -1.0000 electrons
 Dipole moment (field-independent basis, Debye):
    X=              4.0292    Y=              0.7694    Z=             -6.9116  Tot=              8.0373
 Quadrupole moment (field-independent basis, Debye-Ang):
   XX=            -95.8759   YY=           -142.8782   ZZ=           -164.4343
   XY=            -29.7490   XZ=             11.9048   YZ=             -9.6684
 Traceless Quadrupole moment (field-independent basis, Debye-Ang):
   XX=             38.5202   YY=             -8.4821   ZZ=            -30.0382
   XY=            -29.7490   XZ=             11.9048   YZ=             -9.6684
 Octapole moment (field-independent basis, Debye-Ang**2):
  XXX=            201.0829  YYY=           -492.8042  ZZZ=            272.4809  XYY=           -104.6438
  XXY=             58.5940  XXZ=           -112.6237  XZZ=           -179.4303  YZZ=           -159.9039
  YYZ=             26.7796  XYZ=             85.0023
 Hexadecapole moment (field-independent basis, Debye-Ang**3):
 XXXX=          -8733.1027 YYYY=          -2572.1196 ZZZZ=          -1802.4504 XXXY=             79.8185
 XXXZ=           -104.9315 YYYX=            251.1995 YYYZ=            114.2025 ZZZX=            561.0892
 ZZZY=            293.8990 XXYY=          -1599.2461 XXZZ=          -2400.4274 YYZZ=           -661.1876
 XXYZ=            -30.6865 YYXZ=            285.3028 ZZXY=            -99.0542
 N-N= 2.881058186032D+03 E-N=-1.326623366256D+04  KE= 3.143470394888D+03
  Exact polarizability:   0.000   0.000   0.000   0.000   0.000   0.000
 Approx polarizability: 171.955   0.302 166.628   2.023   3.164 159.757
 D2PCM: C-PCM CHGder 2nd derivatives, FixD1E=F FixD2E=F DoIter=F DoCFld=F I1PDM=0
 Calling FoFJK, ICntrl=    100147 FMM=F ISym2X=0 I1Cent= 0 IOpClX= 0 NMat=1 NMatS=1 NMatT=0.
 -------------------------------------------------------------------
 Center     Atomic                   Forces (Hartrees/Bohr)
 Number     Number              X              Y              Z
 -------------------------------------------------------------------
      1       14          -0.000001506    0.000003699    0.000002797
      2        8           0.000000131    0.000002702    0.000006800
      3        8          -0.000000401   -0.000004334    0.000007909
      4        8           0.000002552    0.000005082   -0.000004416
      5        8           0.000001657    0.000009946    0.000011308
      6       20           0.000000893    0.000000474    0.000004064
      7        8           0.000000784   -0.000000898    0.000008767
      8        8           0.000002926    0.000012776    0.000005799
      9        8           0.000002545    0.000004872   -0.000012310
     10        8           0.000000239   -0.000009770    0.000001450
     11        1           0.000001168    0.000011909    0.000006605
     12        1           0.000003870    0.000016262    0.000000794
     13        1          -0.000001300   -0.000000072    0.000009606
     14        1          -0.000004565   -0.000007556    0.000012933
     15        1           0.000002012    0.000006473   -0.000004467
     16        1           0.000002674    0.000005162   -0.000012598
     17        1          -0.000003096   -0.000008942    0.000001113
     18        1          -0.000005319   -0.000011522   -0.000002779
     19        1           0.000001780    0.000007533    0.000010764
     20        1          -0.000002362   -0.000005905    0.000003395
     21       14           0.000000722   -0.000000639   -0.000003396
     22        8           0.000002038    0.000003157   -0.000001432
     23        8           0.000003490    0.000003607   -0.000009853
     24        8          -0.000000654   -0.000010679   -0.000003679
     25        8          -0.000001194    0.000004632    0.000005457
     26       20          -0.000006616   -0.000005886    0.000001789
     27        8           0.000004144    0.000004758   -0.000009001
     28        8           0.000000673    0.000002588    0.000005091
     29        8          -0.000002904   -0.000011281    0.000000639
     30        8          -0.000001457   -0.000009263   -0.000013157
     31        1           0.000000069    0.000004553    0.000004963
     32        1          -0.000000854    0.000000903    0.000013031
     33        1           0.000002693    0.000005665   -0.000007313
     34        1           0.000002583    0.000004582   -0.000013470
     35        1          -0.000003870   -0.000008193   -0.000001071
     36        1          -0.000003410   -0.000015457    0.000007531
     37        1          -0.000000849   -0.000008553   -0.000010492
     38        1           0.000000019   -0.000007711   -0.000015550
     39        1           0.000000693    0.000005325   -0.000007622
 -------------------------------------------------------------------
 Cartesian Forces:  Max     0.000016262 RMS     0.000006549
 IRC-IRC-IRC-IRC-IRC-IRC-IRC-IRC-IRC-IRC-IRC-IRC-IRC-IRC-IRC-IRC-IRC-IRC
          ******** Start new reaction path calculation ********
 Supplied step size of   0.1000 bohr.
    Integration on MW PES will use step size of   0.3099 sqrt(amu)*bohr.
 Point Number:   0          Path Number:   1
 Calculating another point on the path.
 IRC-IRC-IRC-IRC-IRC-IRC-IRC-IRC-IRC-IRC-IRC-IRC-IRC-IRC-IRC-IRC-IRC-IRC
                          Input orientation:                          
 ---------------------------------------------------------------------
 Center     Atomic      Atomic             Coordinates (Angstroms)
 Number     Number       Type             X           Y           Z
 ---------------------------------------------------------------------
      1         14           0       -1.768350   -0.502964    0.572326
      2          8           0       -3.412238   -0.382173    0.530867
      3          8           0       -1.544153   -0.790055   -1.101253
      4          8           0       -1.318188    1.032836    1.094528
      5          8           0       -1.576897   -1.766720    1.666025
      6         20           0       -4.672771    1.366118   -0.361974
      7          8           0       -5.301845   -1.081752   -1.041118
      8          8           0       -5.319638    0.485420    1.968934
      9          8           0       -3.262875    2.770580    0.594319
     10          8           0       -3.282099    0.844387   -2.306100
     11          1           0       -4.480609    0.014601    1.691479
     12          1           0       -5.086167    1.054479    2.704209
     13          1           0       -4.478845   -1.110333   -0.474083
     14          1           0       -5.008441   -1.246972   -1.939437
     15          1           0       -2.042205    1.707912    0.962155
     16          1           0       -3.007654    3.690669    0.571384
     17          1           0       -2.567937    0.241193   -1.986438
     18          1           0       -2.866307    1.486784   -2.883264
     19          1           0       -0.624623   -1.926492    1.684346
     20          1           0       -0.596680   -0.900335   -1.242500
     21         14           0        1.669422    0.084548    0.253454
     22          8           0        3.091498   -0.424517    0.849147
     23          8           0        1.309501    1.612417    0.844922
     24          8           0        1.919581    0.351206   -1.411776
     25          8           0        0.410042   -0.885958    0.485585
     26         20           0        4.966705   -0.860599   -0.580377
     27          8           0        5.384450    0.444111    1.561160
     28          8           0        4.266181   -2.695931    1.007114
     29          8           0        3.609844   -1.512687   -2.209110
     30          8           0        4.417618    1.368679   -1.496487
     31          1           0        3.565498   -2.002109    1.134125
     32          1           0        3.828231   -3.478471    0.668121
     33          1           0        4.395777    0.347302    1.547064
     34          1           0        5.583169    1.378680    1.632575
     35          1           0        2.384238   -0.425449   -1.827954
     36          1           0        3.411495   -2.298384   -2.714152
     37          1           0        3.441344    1.241875   -1.537956
     38          1           0        4.564779    2.181146   -1.008718
     39          1           0        0.344717    1.615068    1.007905
 ---------------------------------------------------------------------
                    Distance matrix (angstroms):
                    1          2          3          4          5
     1  Si   0.000000
     2  O    1.648841   0.000000
     3  O    1.712762   2.513946   0.000000
     4  O    1.683456   2.589403   2.862770   0.000000
     5  O    1.682233   2.563987   2.934753   2.868981   0.000000
     6  Ca   3.577994   2.332944   3.870900   3.672288   4.848905
     7  O    3.927313   2.555614   3.769477   4.990190   4.655431
     8  O    3.941961   2.541443   5.030624   4.132294   4.378584
     9  O    3.598636   3.156927   4.301988   2.655518   4.957637
    10  O    3.520245   3.093503   2.672735   3.931505   5.050086
    11  H    2.979383   1.626612   4.131537   3.375508   3.406654
    12  H    4.240101   3.096679   5.516313   4.097463   4.620818
    13  H    2.968274   1.636396   3.018002   4.128373   3.664998
    14  H    4.166616   3.065639   3.593413   5.293433   5.004496
    15  H    2.261622   2.536031   3.278040   0.998724   3.575613
    16  H    4.372920   4.093088   5.001644   3.192499   5.747034
    17  H    2.782154   2.727316   1.701516   3.417736   4.284198
    18  H    4.135905   3.930309   3.179254   4.292502   5.739677
    19  H    2.138020   3.389134   3.145884   3.096214   0.965758
    20  H    2.196431   3.367593   0.964270   3.117599   3.189195
    21  Si   3.502161   5.110582   3.595446   3.245377   3.995139
    22  O    4.868358   6.511657   5.042514   4.650744   4.925720
    23  O    3.744638   5.135352   4.207471   2.702400   4.519300
    24  O    4.274003   5.721887   3.660103   4.150822   5.117013
    25  O    2.213504   3.855603   2.519153   2.653179   2.473279
    26  Ca   6.842339   8.465840   6.532041   6.774237   6.977544
    27  O    7.282671   8.895277   7.524437   6.744605   7.304733
    28  O    6.435349   8.033580   6.468196   6.715394   5.953080
    29  O    6.138477   7.622019   5.321018   6.455944   6.479467
    30  O    6.785958   8.275402   6.352877   6.302826   7.467691
    31  H    5.568931   7.188666   5.707410   5.750030   5.175187
    32  H    6.339128   7.875931   6.262649   6.857065   5.756850
    33  H    6.298375   7.907584   6.602267   5.772706   6.336882
    34  H    7.662215   9.232101   7.935738   6.930932   7.820563
    35  H    4.797014   6.258198   4.011644   4.937150   5.449540
    36  H    6.391812   7.795212   5.425398   6.926252   6.659780
    37  H    5.885462   7.340922   5.401354   5.443052   6.670823
    38  H    7.057809   8.519021   6.793795   6.352288   7.775608
    39  H    3.023383   4.281501   3.714970   1.764016   3.944898
                    6          7          8          9         10
     6  Ca   0.000000
     7  O    2.617067   0.000000
     8  O    2.574334   3.393635   0.000000
     9  O    2.207899   4.655375   3.367758   0.000000
    10  O    2.446589   3.064239   4.749351   3.481813   0.000000
    11  H    2.465805   3.056715   1.001310   3.206565   4.255068
    12  H    3.109581   4.317114   0.958627   3.274299   5.329352
    13  H    2.486560   0.999837   3.036724   4.204944   2.934180
    14  H    3.070717   0.959354   4.286419   5.060400   2.736508
    15  H    2.964796   4.735037   3.640008   1.659700   3.600625
    16  H    3.007874   5.535294   4.191902   0.955106   4.056668
    17  H    2.886982   3.180891   4.824569   3.679816   0.987955
    18  H    3.103993   3.990329   5.528597   3.728134   0.958476
    19  H    5.605015   5.478881   5.285969   5.496455   5.537473
    20  H    4.746224   4.712965   5.877070   4.894703   3.374429
    21  Si   6.499583   7.185732   7.207672   5.626590   5.625499
    22  O    8.059594   8.628631   8.533998   7.116997   7.224157
    23  O    6.107768   7.384145   6.817551   4.723427   5.621530
    24  O    6.752128   7.371550   7.990838   6.060993   5.300992
    25  O    5.623627   5.915641   6.075379   5.183861   4.941610
    26  Ca   9.895730  10.281261  10.682678   9.071459   8.598132
    27  O   10.280867  11.103919  10.711932   9.006857   9.498684
    28  O    9.913602   9.917054  10.145640   9.313422   8.971498
    29  O    8.961090   8.998229  10.059033   8.569706   7.284510
    30  O    9.160911  10.033939  10.373207   8.082498   7.759897
    31  H    9.025095   9.176520   9.264467   8.348451   8.174795
    32  H    9.838606   9.592917  10.054256   9.451978   8.836848
    33  H    9.323141  10.138281   9.725551   8.089187   8.604867
    34  H   10.448094  11.475447  10.944507   9.014868   9.715534
    35  H    7.426990   7.754078   8.636883   6.926175   5.826533
    36  H    9.182410   8.955531  10.291430   9.010416   7.405924
    37  H    8.199831   9.060323   9.467064   7.199312   6.778844
    38  H    9.295960  10.392200  10.461529   8.011824   8.064963
    39  H    5.207085   6.584452   5.855306   3.810641   4.972965
                   11         12         13         14         15
    11  H    0.000000
    12  H    1.572790   0.000000
    13  H    2.440316   3.893172   0.000000
    14  H    3.879913   5.183258   1.564098   0.000000
    15  H    3.056964   3.567553   3.992805   5.094028   0.000000
    16  H    4.115542   3.977268   5.129037   5.889624   2.239670
    17  H    4.151714   5.385637   2.786648   2.858829   3.334945
    18  H    5.069671   6.027812   3.892229   3.599023   3.938945
    19  H    4.317003   5.461838   4.492211   5.728124   3.967365
    20  H    4.952801   6.289141   3.963050   4.479900   3.708503
    21  Si   6.316303   7.251548   6.305414   7.153710   4.112632
    22  O    7.631458   8.514863   7.715658   8.605908   5.560120
    23  O    6.065892   6.683772   6.531316   7.472961   3.355115
    24  O    7.120809   8.155760   6.629873   7.129522   4.813725
    25  O    5.116996   6.236658   4.987236   5.947354   3.601221
    26  Ca   9.755975  10.747849   9.449449  10.074714   7.622432
    27  O    9.875264  10.550494  10.190343  11.096221   7.557195
    28  O    9.182683  10.218224   9.010192   9.838712   7.693607
    29  O    9.110578  10.312694   8.282458   8.626596   7.237046
    30  O    9.548564  10.395503   9.291816   9.792263   6.920210
    31  H    8.313699   9.309092   8.251852   9.139445   6.726081
    32  H    9.071143  10.205870   8.713222   9.479753   7.838816
    33  H    8.883792   9.578431   9.217844  10.155624   6.606133
    34  H   10.155973  10.727918  10.577207  11.481964   7.661865
    35  H    7.726977   8.862146   7.028794   7.439021   5.650604
    36  H    9.329779  10.621232   8.287752   8.520620   7.701199
    37  H    8.642499   9.526254   8.330312   8.817846   6.044588
    38  H    9.685247  10.401729   9.638817  10.211012   6.910899
    39  H    5.129575   5.717186   5.735055   6.747919   2.389166
                   16         17         18         19         20
    16  H    0.000000
    17  H    4.316792   0.000000
    18  H    4.100205   1.563592   0.000000
    19  H    6.202420   4.685080   6.126880   0.000000
    20  H    5.493658   2.396326   3.679898   3.101646   0.000000
    21  Si   5.914408   4.795504   5.690177   3.369626   2.888442
    22  O    7.362850   6.364975   7.285562   4.094270   4.266621
    23  O    4.799143   4.993133   5.599333   4.119387   3.782166
    24  O    6.273960   4.525500   5.134154   4.609431   2.815418
    25  O    5.712576   4.031094   5.264363   1.894801   1.999994
    26  Ca   9.253702   7.743499   8.495269   6.126015   5.602789
    27  O    9.052469   8.710171   9.429479   6.460952   6.741065
    28  O    9.689540   8.018305   9.137973   4.997064   5.650872
    29  O    8.865514   6.425780   7.168811   5.767231   4.359376
    30  O    8.049993   7.092901   7.415704   6.811758   5.509638
    31  H    8.713824   7.238048   8.347450   4.226770   4.917925
    32  H    9.906324   7.860887   9.059964   4.823823   5.465995
    33  H    8.181738   7.809622   8.582779   5.513021   5.853451
    34  H    8.959556   8.990642   9.581134   7.033031   7.186828
    35  H    7.195258   4.999356   5.686699   4.862368   3.074760
    36  H    9.373845   6.537019   7.332591   5.981249   4.492857
    37  H    7.213562   6.108515   6.454169   6.078969   4.580611
    38  H    7.881441   7.456204   7.695265   7.145291   6.015882
    39  H    3.966997   4.397406   5.046616   3.733610   3.503970
                   21         22         23         24         25
    21  Si   0.000000
    22  O    1.623668   0.000000
    23  O    1.677427   2.706406   0.000000
    24  O    1.704898   2.662124   2.656227   0.000000
    25  O    1.606800   2.745053   2.679558   2.721995   0.000000
    26  Ca   3.529965   2.397938   4.639228   3.382996   4.679754
    27  O    3.954846   2.553253   4.299203   4.566431   5.260292
    28  O    3.878431   2.562061   5.227822   4.543413   4.291597
    29  O    3.518611   3.287207   4.938114   2.639475   4.230001
    30  O    3.501980   3.236686   3.898974   2.698632   5.007260
    31  H    2.953781   1.671731   4.270593   3.837805   3.409296
    32  H    4.186587   3.146773   5.682640   4.757661   4.294003
    33  H    3.029105   1.668512   3.408609   3.858276   4.305084
    34  H    4.346741   3.173909   4.351927   4.872951   5.762413
    35  H    2.259052   2.768950   3.528771   0.996144   3.076033
    36  H    4.185674   4.038672   5.690321   3.307917   4.608902
    37  H    2.772771   2.932151   3.218721   1.767760   4.220330
    38  H    3.791028   3.523024   3.788967   3.241637   5.376050
    39  H    2.160216   3.424897   0.978457   3.151571   2.555821
                   26         27         28         29         30
    26  Ca   0.000000
    27  O    2.542235   0.000000
    28  O    2.525729   3.378957   0.000000
    29  O    2.217896   4.603609   3.489261   0.000000
    30  O    2.471929   3.337483   4.776191   3.076133   0.000000
    31  H    2.491173   3.078138   0.994222   3.379160   4.359866
    32  H    3.115786   4.313465   0.958689   3.491484   5.341138
[...]
    29  O    0.000000   0.000000  -0.000000   0.000006  -0.000007   0.000000
    30  O    0.000000  -0.000000  -0.000002   0.000004   0.000003  -0.000000
    31  H    0.000003  -0.000001   0.000010   0.000023   0.000022  -0.000002
    32  H   -0.000000   0.000000  -0.000000  -0.000001   0.000000  -0.000000
    33  H   -0.000001  -0.000001   0.000008   0.000002   0.000003  -0.000000
    34  H    0.000000   0.000000  -0.000000   0.000000  -0.000001  -0.000000
    35  H   -0.000016  -0.000019   0.000013   0.000330   0.000200  -0.000004
    36  H   -0.000000   0.000000   0.000001  -0.000012   0.000001  -0.000000
    37  H    0.000001   0.000002   0.000028  -0.000097  -0.000046   0.000002
    38  H    0.000000  -0.000000  -0.000000   0.000005   0.000002  -0.000000
    39  H    0.000052  -0.000991  -0.001458  -0.001874   0.000583   0.000278
              13         14         15         16         17         18
     1  Si  -0.011179  -0.001080  -0.060710  -0.000504   0.017930   0.006356
     2  O    0.006300   0.005089  -0.062730   0.002181   0.010256   0.001310
     3  O    0.016540   0.000624   0.021052  -0.000239   0.003146   0.000382
     4  O    0.008510  -0.000161   0.080965   0.006197   0.011333  -0.000842
     5  O   -0.014685   0.000380  -0.005831  -0.000085   0.005170  -0.000537
     6  Ca  -0.028998  -0.012772  -0.035488  -0.016388   0.003093  -0.006377
     7  O    0.264750   0.307158  -0.000438   0.000355  -0.001089   0.002865
     8  O   -0.011034  -0.000969   0.006750   0.001413  -0.002110   0.000136
     9  O    0.003956  -0.000414  -0.032191   0.225743  -0.005170   0.001941
    10  O   -0.002486   0.009319   0.005078  -0.000240   0.225064   0.301492
    11  H    0.008638   0.003357   0.006024  -0.001322   0.004250  -0.000254
    12  H    0.003715  -0.000012  -0.005420   0.001246  -0.000235   0.000002
    13  H    0.471341  -0.010512   0.004589  -0.000663   0.003616  -0.003029
    14  H   -0.010512   0.421434   0.000203   0.000047  -0.009009   0.001781
    15  H    0.004589   0.000203   0.616554  -0.003610  -0.009232   0.000595
    16  H   -0.000663   0.000047  -0.003610   0.483985   0.000539   0.000380
    17  H    0.003616  -0.009009  -0.009232   0.000539   0.454955  -0.018046
    18  H   -0.003029   0.001781   0.000595   0.000380  -0.018046   0.396696
    19  H    0.003086   0.000270  -0.003726   0.000171  -0.002152   0.000186
    20  H   -0.002507   0.002049  -0.008927   0.000691  -0.031767   0.000260
    21  Si  -0.004997   0.000358   0.069657   0.000592   0.005220  -0.002199
    22  O    0.000148  -0.000004   0.001716   0.000006   0.000553   0.000004
    23  O    0.000257  -0.000020  -0.017059   0.000838  -0.000316  -0.000030
    24  O   -0.000243   0.000025  -0.002605  -0.000057  -0.003041   0.000119
    25  O    0.003853  -0.000463   0.036940  -0.000602   0.001984  -0.000024
    26  Ca   0.000223   0.000043   0.000146   0.000132  -0.000185  -0.000014
    27  O    0.000001  -0.000000   0.000017   0.000001  -0.000004   0.000001
    28  O    0.000001  -0.000000   0.000014   0.000000   0.000025  -0.000001
    29  O   -0.000009   0.000001   0.000041  -0.000000  -0.000056   0.000006
    30  O    0.000002   0.000001   0.000298  -0.000009  -0.000118   0.000020
    31  H   -0.000001   0.000002  -0.000062  -0.000005  -0.000120   0.000006
    32  H   -0.000001  -0.000000  -0.000002  -0.000000   0.000011  -0.000001
    33  H    0.000003   0.000000   0.000562  -0.000018   0.000154  -0.000016
    34  H   -0.000001   0.000000  -0.000005   0.000000  -0.000007   0.000001
    35  H    0.000017   0.000017  -0.001949  -0.000022  -0.001312  -0.000042
    36  H   -0.000005  -0.000000  -0.000003   0.000000   0.000044   0.000011
    37  H   -0.000075   0.000001  -0.000989   0.000052   0.000204   0.000042
    38  H   -0.000002   0.000000   0.000047  -0.000006   0.000026  -0.000008
    39  H   -0.000524  -0.000016  -0.044907  -0.002028   0.001341   0.000181
              19         20         21         22         23         24
     1  Si   0.070382   0.053739  -0.507195  -0.025759   0.039532   0.030233
     2  O    0.020872   0.042647  -0.030240  -0.000141  -0.001175   0.000115
     3  O   -0.012503   0.135217   0.083622   0.008709  -0.008144  -0.006235
     4  O   -0.011197  -0.016737   0.041380  -0.007548   0.004599  -0.001728
     5  O    0.186380  -0.024159   0.033881  -0.001159   0.001594   0.002873
     6  Ca  -0.002441   0.001292  -0.001713  -0.000180  -0.000300   0.000311
     7  O   -0.000259   0.001179   0.000573   0.000001  -0.000015  -0.000011
     8  O   -0.000259   0.000752   0.000993   0.000000   0.000053  -0.000002
     9  O   -0.000182  -0.000513  -0.005321  -0.000027   0.001893   0.000101
    10  O    0.000120  -0.001402   0.002092   0.000036  -0.000016   0.000113
    11  H    0.002205  -0.002907  -0.004848  -0.000033   0.000116   0.000135
    12  H    0.000358   0.000133  -0.000071   0.000007   0.000037  -0.000013
    13  H    0.003086  -0.002507  -0.004997   0.000148   0.000257  -0.000243
    14  H    0.000270   0.002049   0.000358  -0.000004  -0.000020   0.000025
    15  H   -0.003726  -0.008927   0.069657   0.001716  -0.017059  -0.002605
    16  H    0.000171   0.000691   0.000592   0.000006   0.000838  -0.000057
    17  H   -0.002152  -0.031767   0.005220   0.000553  -0.000316  -0.003041
    18  H    0.000186   0.000260  -0.002199   0.000004  -0.000030   0.000119
    19  H    0.488226   0.003231  -0.027668  -0.004125   0.003690   0.001781
    20  H    0.003231   0.548621   0.000232  -0.007063   0.003554   0.003103
    21  Si  -0.027668   0.000232  12.759778   0.038962   0.091598  -0.024771
    22  O   -0.004125  -0.007063   0.038962   9.188757  -0.053388   0.014833
    23  O    0.003690   0.003554   0.091598  -0.053388   8.388204   0.010726
    24  O    0.001781   0.003103  -0.024771   0.014833   0.010726   8.584840
    25  O   -0.016072  -0.051329   0.227327   0.035610  -0.049444   0.041295
    26  Ca   0.000989   0.001316  -0.000005   0.048200   0.000253  -0.028956
    27  O   -0.000054   0.000117  -0.002444  -0.035508  -0.000751  -0.009638
    28  O   -0.000418  -0.000646  -0.007828  -0.033699  -0.000607  -0.001303
    29  O   -0.000165  -0.001155   0.015305  -0.003759  -0.001740  -0.055610
    30  O    0.000058  -0.000155   0.006396   0.014175  -0.007033   0.022228
    31  H   -0.002861   0.001149   0.022939  -0.034256   0.000151  -0.001301
    32  H    0.000149  -0.000022   0.002106  -0.000500   0.000708   0.000357
    33  H   -0.000251  -0.001653   0.004377  -0.018891  -0.014606   0.020803
    34  H   -0.000040   0.000081   0.002144   0.000306   0.000154  -0.000295
    35  H    0.002077   0.011646   0.004943  -0.063830   0.037730   0.171596
    36  H   -0.000099  -0.000535   0.000185  -0.000327  -0.000098   0.003986
    37  H   -0.000304   0.002367   0.034420  -0.032281  -0.009544  -0.007603
    38  H   -0.000003  -0.000325   0.009669  -0.005687  -0.002405  -0.011936
    39  H    0.002144   0.003463  -0.074560  -0.000704   0.287988   0.015050
              25         26         27         28         29         30
     1  Si   0.090296  -0.000699   0.001895  -0.001095  -0.005144   0.000270
     2  O   -0.077401   0.000434  -0.000000   0.000002  -0.000006  -0.000002
     3  O    0.019459  -0.000274  -0.000003   0.000050   0.000991   0.000052
     4  O   -0.009647  -0.001398   0.000013  -0.000014   0.000004   0.000071
     5  O    0.080131  -0.000992  -0.000005  -0.000060   0.000089  -0.000022
     6  Ca  -0.002389  -0.000478  -0.000037   0.000053   0.000010   0.000012
     7  O   -0.000119   0.000005  -0.000000  -0.000000   0.000000   0.000000
     8  O    0.000499  -0.000001   0.000000  -0.000000   0.000000  -0.000000
     9  O    0.000668   0.000003  -0.000000  -0.000000  -0.000000  -0.000002
    10  O    0.003223   0.000003   0.000000   0.000000   0.000006   0.000004
    11  H    0.004422   0.000008   0.000001  -0.000002  -0.000007   0.000003
    12  H   -0.000422   0.000090  -0.000000   0.000000   0.000000  -0.000000
    13  H    0.003853   0.000223   0.000001   0.000001  -0.000009   0.000002
    14  H   -0.000463   0.000043  -0.000000  -0.000000   0.000001   0.000001
    15  H    0.036940   0.000146   0.000017   0.000014   0.000041   0.000298
    16  H   -0.000602   0.000132   0.000001   0.000000  -0.000000  -0.000009
    17  H    0.001984  -0.000185  -0.000004   0.000025  -0.000056  -0.000118
    18  H   -0.000024  -0.000014   0.000001  -0.000001   0.000006   0.000020
    19  H   -0.016072   0.000989  -0.000054  -0.000418  -0.000165   0.000058
    20  H   -0.051329   0.001316   0.000117  -0.000646  -0.001155  -0.000155
    21  Si   0.227327  -0.000005  -0.002444  -0.007828   0.015305   0.006396
    22  O    0.035610   0.048200  -0.035508  -0.033699  -0.003759   0.014175
    23  O   -0.049444   0.000253  -0.000751  -0.000607  -0.001740  -0.007033
    24  O    0.041295  -0.028956  -0.009638  -0.001303  -0.055610   0.022228
    25  O    8.710541  -0.010730   0.000710   0.002762  -0.006437   0.001083
    26  Ca  -0.010730  18.481866   0.026045   0.029696   0.051511   0.007313
    27  O    0.000710   0.026045   8.001203  -0.001175  -0.003492   0.031403
    28  O    0.002762   0.029696  -0.001175   7.975628   0.012267  -0.002509
    29  O   -0.006437   0.051511  -0.003492   0.012267   8.823293  -0.005110
    30  O    0.001083   0.007313   0.031403  -0.002509  -0.005110   7.974558
    31  H   -0.010378  -0.009298   0.001287   0.285515  -0.018288   0.002529
    32  H   -0.001078  -0.014562  -0.001388   0.322345   0.002791  -0.000264
    33  H    0.001813  -0.019623   0.275436  -0.001076   0.003887  -0.018220
    34  H    0.000210  -0.014603   0.309042  -0.000949  -0.000240   0.002458
    35  H   -0.033011  -0.008855   0.004223  -0.005922   0.005859  -0.006830
    36  H    0.000528  -0.017945   0.000122  -0.000839   0.247815  -0.002690
    37  H    0.004665  -0.007296  -0.005619   0.000982   0.005050   0.227278
    38  H    0.000490  -0.011811  -0.002272   0.000199  -0.001352   0.306881
    39  H   -0.020748  -0.000447  -0.000995   0.000122   0.000232   0.000077
              31         32         33         34         35         36
     1  Si   0.005920  -0.000962  -0.008968   0.000229   0.035153   0.000422
     2  O   -0.000010  -0.000033  -0.000192   0.000004  -0.000085   0.000002
     3  O   -0.000153   0.000006   0.000606  -0.000007  -0.016881   0.000227
     4  O   -0.000045   0.000051   0.000395   0.000014   0.001056   0.000025
     5  O    0.000125   0.000149   0.000585  -0.000006  -0.000345   0.000046
     6  Ca   0.000053   0.000093   0.000197   0.000053  -0.000199   0.000059
     7  O    0.000003  -0.000000  -0.000001   0.000000  -0.000016  -0.000000
     8  O   -0.000001   0.000000  -0.000001   0.000000  -0.000019   0.000000
     9  O    0.000010  -0.000000   0.000008  -0.000000   0.000013   0.000001
    10  O    0.000023  -0.000001   0.000002   0.000000   0.000330  -0.000012
    11  H    0.000022   0.000000   0.000003  -0.000001   0.000200   0.000001
    12  H   -0.000002  -0.000000  -0.000000  -0.000000  -0.000004  -0.000000
    13  H   -0.000001  -0.000001   0.000003  -0.000001   0.000017  -0.000005
    14  H    0.000002  -0.000000   0.000000   0.000000   0.000017  -0.000000
    15  H   -0.000062  -0.000002   0.000562  -0.000005  -0.001949  -0.000003
    16  H   -0.000005  -0.000000  -0.000018   0.000000  -0.000022   0.000000
    17  H   -0.000120   0.000011   0.000154  -0.000007  -0.001312   0.000044
    18  H    0.000006  -0.000001  -0.000016   0.000001  -0.000042   0.000011
    19  H   -0.002861   0.000149  -0.000251  -0.000040   0.002077  -0.000099
    20  H    0.001149  -0.000022  -0.001653   0.000081   0.011646  -0.000535
    21  Si   0.022939   0.002106   0.004377   0.002144   0.004943   0.000185
    22  O   -0.034256  -0.000500  -0.018891   0.000306  -0.063830  -0.000327
    23  O    0.000151   0.000708  -0.014606   0.000154   0.037730  -0.000098
    24  O   -0.001301   0.000357   0.020803  -0.000295   0.171596   0.003986
    25  O   -0.010378  -0.001078   0.001813   0.000210  -0.033011   0.000528
    26  Ca  -0.009298  -0.014562  -0.019623  -0.014603  -0.008855  -0.017945
    27  O    0.001287  -0.001388   0.275436   0.309042   0.004223   0.000122
    28  O    0.285515   0.322345  -0.001076  -0.000949  -0.005922  -0.000839
    29  O   -0.018288   0.002791   0.003887  -0.000240   0.005859   0.247815
    30  O    0.002529  -0.000264  -0.018220   0.002458  -0.006830  -0.002690
    31  H    0.443867  -0.014097  -0.012201   0.003307   0.010765   0.001830
    32  H   -0.014097   0.400258   0.003559   0.000011   0.000726   0.000149
    33  H   -0.012201   0.003559   0.460612  -0.010510  -0.006951  -0.000293
    34  H    0.003307   0.000011  -0.010510   0.404307   0.000063   0.000066
    35  H    0.010765   0.000726  -0.006951   0.000063   0.556320  -0.002714
    36  H    0.001830   0.000149  -0.000293   0.000066  -0.002714   0.448394
    37  H   -0.001297   0.000179   0.002695   0.001570  -0.012029   0.003675
    38  H   -0.000535   0.000042   0.003401  -0.002437   0.004998  -0.000096
    39  H    0.001013  -0.000009   0.001213  -0.000108   0.003400  -0.000039
              37         38         39
     1  Si  -0.003177  -0.000775   0.047524
     2  O    0.000171  -0.000013   0.010475
     3  O   -0.000158   0.000052  -0.007554
     4  O   -0.000219   0.000107   0.018557
     5  O    0.000137   0.000001  -0.001603
     6  Ca   0.000164   0.000013   0.002951
     7  O    0.000001   0.000000   0.000052
     8  O    0.000002  -0.000000  -0.000991
     9  O    0.000028  -0.000000  -0.001458
    10  O   -0.000097   0.000005  -0.001874
    11  H   -0.000046   0.000002   0.000583
    12  H    0.000002  -0.000000   0.000278
    13  H   -0.000075  -0.000002  -0.000524
    14  H    0.000001   0.000000  -0.000016
    15  H   -0.000989   0.000047  -0.044907
    16  H    0.000052  -0.000006  -0.002028
    17  H    0.000204   0.000026   0.001341
    18  H    0.000042  -0.000008   0.000181
    19  H   -0.000304  -0.000003   0.002144
    20  H    0.002367  -0.000325   0.003463
    21  Si   0.034420   0.009669  -0.074560
    22  O   -0.032281  -0.005687  -0.000704
    23  O   -0.009544  -0.002405   0.287988
    24  O   -0.007603  -0.011936   0.015050
    25  O    0.004665   0.000490  -0.020748
    26  Ca  -0.007296  -0.011811  -0.000447
    27  O   -0.005619  -0.002272  -0.000995
    28  O    0.000982   0.000199   0.000122
    29  O    0.005050  -0.001352   0.000232
    30  O    0.227278   0.306881   0.000077
    31  H   -0.001297  -0.000535   0.001013
    32  H    0.000179   0.000042  -0.000009
    33  H    0.002695   0.003401   0.001213
    34  H    0.001570  -0.002437  -0.000108
    35  H   -0.012029   0.004998   0.003400
    36  H    0.003675  -0.000096  -0.000039
    37  H    0.493424   0.002626   0.002413
    38  H    0.002626   0.402845   0.000356
    39  H    0.002413   0.000356   0.422370
 Mulliken charges:
               1
     1  Si   1.005564
     2  O   -0.953409
     3  O   -0.708030
     4  O   -0.820042
     5  O   -0.659088
     6  Ca   1.427605
     7  O   -0.538731
     8  O   -0.574804
     9  O   -1.078632
    10  O   -0.626801
    11  H    0.324014
    12  H    0.286566
    13  H    0.291406
    14  H    0.283274
    15  H    0.444636
    16  H    0.301233
    17  H    0.335055
    18  H    0.316648
    19  H    0.298403
    20  H    0.334964
    21  Si   1.235111
    22  O   -1.023153
    23  O   -0.706985
    24  O   -0.769276
    25  O   -0.978215
    26  Ca   1.499895
    27  O   -0.588132
    28  O   -0.571521
    29  O   -1.066588
    30  O   -0.554206
    31  H    0.324394
    32  H    0.299231
    33  H    0.333160
    34  H    0.305189
    35  H    0.309885
    36  H    0.318107
    37  H    0.298588
    38  H    0.307907
    39  H    0.336780
 Sum of Mulliken charges =  -1.00000
 Mulliken charges with hydrogens summed into heavy atoms:
               1
     1  Si   1.005564
     2  O   -0.953409
     3  O   -0.373067
     4  O   -0.375406
     5  O   -0.360685
     6  Ca   1.427605
     7  O    0.035950
     8  O    0.035775
     9  O   -0.777399
    10  O    0.024901
    21  Si   1.235111
    22  O   -1.023153
    23  O   -0.370205
    24  O   -0.459391
    25  O   -0.978215
    26  Ca   1.499895
    27  O    0.050218
    28  O    0.052104
    29  O   -0.748481
    30  O    0.052289
 APT charges:
               1
     1  Si   0.751980
     2  O   -0.664756
     3  O   -0.551436
     4  O   -1.012465
     5  O   -0.427312
     6  Ca   1.352288
     7  O   -0.108749
     8  O   -0.245640
     9  O   -1.560511
    10  O   -0.333039
    11  H   -0.434901
    12  H    0.616070
    13  H   -0.380591
    14  H    0.421391
    15  H    0.710700
    16  H    0.761925
    17  H   -0.237355
    18  H    0.568663
    19  H    0.264469
    20  H    0.249225
    21  Si   1.020281
    22  O   -0.450986
    23  O   -0.541547
    24  O   -1.062965
    25  O   -1.221066
    26  Ca   1.362426
    27  O   -0.370533
    28  O   -0.121780
    29  O   -1.554385
    30  O   -0.255279
    31  H   -0.431301
    32  H    0.517492
    33  H   -0.528564
    34  H    0.840670
    35  H    0.773962
    36  H    0.762793
    37  H   -0.417302
    38  H    0.719504
    39  H    0.218624
 Sum of APT charges =  -1.00000
 APT charges with hydrogens summed into heavy atoms:
               1
     1  Si   0.751980
     2  O   -0.664756
     3  O   -0.302212
     4  O   -0.301765
     5  O   -0.162842
     6  Ca   1.352288
     7  O   -0.067949
     8  O   -0.064472
     9  O   -0.798586
    10  O   -0.001731
    21  Si   1.020281
    22  O   -0.450986
    23  O   -0.322923
    24  O   -0.289003
    25  O   -1.221066
    26  Ca   1.362426
    27  O   -0.058427
    28  O   -0.035589
    29  O   -0.791592
    30  O    0.046923
 Electronic spatial extent (au):  <R**2>=          12508.5444
 Charge=             -1.0000 electrons
 Dipole moment (field-independent basis, Debye):
    X=              8.7275    Y=              5.6497    Z=             -9.5559  Tot=             14.1210
 Quadrupole moment (field-independent basis, Debye-Ang):
   XX=           -102.7723   YY=           -151.3665   ZZ=           -173.7776
   XY=            -36.5386   XZ=             19.3687   YZ=              1.5395
 Traceless Quadrupole moment (field-independent basis, Debye-Ang):
   XX=             39.8665   YY=             -8.7277   ZZ=            -31.1388
   XY=            -36.5386   XZ=             19.3687   YZ=              1.5395
 Octapole moment (field-independent basis, Debye-Ang**2):
  XXX=            375.8252  YYY=              1.1831  ZZZ=            -15.5637  XYY=             51.2630
  XXY=            195.3846  XXZ=           -179.7094  XZZ=            -75.8911  YZZ=             27.4460
  YYZ=            -45.5951  XYZ=             49.0227
 Hexadecapole moment (field-independent basis, Debye-Ang**3):
 XXXX=          -9071.5953 YYYY=          -1462.4087 ZZZZ=          -1509.8092 XXXY=           -380.3754
 XXXZ=            268.8630 YYYX=            488.5893 YYYZ=             -4.9642 ZZZX=            272.0973
 ZZZY=             28.4037 XXYY=          -1862.5658 XXZZ=          -2421.5110 YYZZ=           -514.2758
 XXYZ=            148.3775 YYXZ=            109.6885 ZZXY=            168.2975
 N-N= 2.889562115444D+03 E-N=-1.328327004081D+04  KE= 3.143405847301D+03
  Exact polarizability:   0.000   0.000   0.000   0.000   0.000   0.000
 Approx polarizability: 172.023   0.079 166.514   1.876   3.250 159.647

 This type of calculation cannot be archived.


 THERE IS SOMETHING FASCINATING ABOUT SCIENCE.
 ONE GETS SUCH WHOLESALE CONJECTURE OUT OF SUCH TRIFLING INVESTMENTS.

                                                       -- MARK TWAIN
 Job cpu time:       3 days 14 hours 52 minutes 58.5 seconds.
 Elapsed time:       0 days  5 hours 57 minutes 53.0 seconds.
 File lengths (MBytes):  RWF=   1690 Int=      0 D2E=      0 Chk=     51 Scr=      1
 Normal termination of Gaussian 16 at Thu Apr 28 05:29:54 2022.
