 Entering Gaussian System, Link 0=g16
 Initial command:
 /home/apps/g16/l1.exe "./Gau-364414.inp" -scrdir="./"
 Entering Link 1 = /home/apps/g16/l1.exe PID=    364415.
  
 Copyright (c) 1988-2017, Gaussian, Inc.  All Rights Reserved.
  
 This is part of the Gaussian(R) 16 program.  It is based on
 the Gaussian(R) 09 system (copyright 2009, Gaussian, Inc.),
 the Gaussian(R) 03 system (copyright 2003, Gaussian, Inc.),
 the Gaussian(R) 98 system (copyright 1998, Gaussian, Inc.),
 the Gaussian(R) 94 system (copyright 1995, Gaussian, Inc.),
 the Gaussian 92(TM) system (copyright 1992, Gaussian, Inc.),
 the Gaussian 90(TM) system (copyright 1990, Gaussian, Inc.),
 the Gaussian 88(TM) system (copyright 1988, Gaussian, Inc.),
 the Gaussian 86(TM) system (copyright 1986, Carnegie Mellon
 University), and the Gaussian 82(TM) system (copyright 1983,
 Carnegie Mellon University). Gaussian is a federally registered
 trademark of Gaussian, Inc.
  
 This software contains proprietary and confidential information,
 including trade secrets, belonging to Gaussian, Inc.
  
 This software is provided under written license and may be
 used, copied, transmitted, or stored only in accord with that
 written license.
  
 The following legend is applicable only to US Government
 contracts under FAR:
  
                    RESTRICTED RIGHTS LEGEND
  
 Use, reproduction and disclosure by the US Government is
 subject to restrictions as set forth in subparagraphs (a)
 and (c) of the Commercial Computer Software - Restricted
 Rights clause in FAR 52.227-19.
  
 Gaussian, Inc.
 340 Quinnipiac St., Bldg. 40, Wallingford CT 06492
  
  
 ---------------------------------------------------------------
 Warning -- This program may not be used in any manner that
 competes with the business of Gaussian, Inc. or will provide
 assistance to any competitor of Gaussian, Inc.  The licensee
 of this program is prohibited from giving any competitor of
 Gaussian, Inc. access to this program.  By using this program,
 the user acknowledges that Gaussian, Inc. is engaged in the
 business of creating and licensing software in the field of
 computational chemistry and represents and warrants to the
 licensee that it is not a competitor of Gaussian, Inc. and that
 it will not use this program in any manner prohibited above.
 ---------------------------------------------------------------
  

 Cite this work as:
 Gaussian 16, Revision B.01,
 M. J. Frisch, G. W. Trucks, H. B. Schlegel, G. E. Scuseria, 
 M. A. Robb, J. R. Cheeseman, G. Scalmani, V. Barone, 
 G. A. Petersson, H. Nakatsuji, X. Li, M. Caricato, A. V. Marenich, 
 J. Bloino, B. G. Janesko, R. Gomperts, B. Mennucci, H. P. Hratchian, 
 J. V. Ortiz, A. F. Izmaylov, J. L. Sonnenberg, D. Williams-Young, 
 F. Ding, F. Lipparini, F. Egidi, J. Goings, B. Peng, A. Petrone, 
 T. Henderson, D. Ranasinghe, V. G. Zakrzewski, J. Gao, N. Rega, 
 G. Zheng, W. Liang, M. Hada, M. Ehara, K. Toyota, R. Fukuda, 
 J. Hasegawa, M. Ishida, T. Nakajima, Y. Honda, O. Kitao, H. Nakai, 
 T. Vreven, K. Throssell, J. A. Montgomery, Jr., J. E. Peralta, 
 F. Ogliaro, M. J. Bearpark, J. J. Heyd, E. N. Brothers, K. N. Kudin, 
 V. N. Staroverov, T. A. Keith, R. Kobayashi, J. Normand, 
 K. Raghavachari, A. P. Rendell, J. C. Burant, S. S. Iyengar, 
 J. Tomasi, M. Cossi, J. M. Millam, M. Klene, C. Adamo, R. Cammi, 
 J. W. Ochterski, R. L. Martin, K. Morokuma, O. Farkas, 
 J. B. Foresman, and D. J. Fox, Gaussian, Inc., Wallingford CT, 2016.
 
 ******************************************
 Gaussian 16:  EM64L-G16RevB.01 20-Dec-2017
                25-Apr-2022 
 ******************************************
 %nprocshared=16
 Will use up to   16 processors via shared memory.
 %mem=2000MW
 %chk=dimerirc.chk
 ----------------------------------------------------------------------
 # irc=(calcfc,maxpoints=6,recalc=3,maxcycle=50) wb97xd/6-311++g(d,p) s
 crf=(cpcm,solvent=water) nosymm
 ----------------------------------------------------------------------
 1/6=50,10=4,18=10,26=3,38=1,42=6,44=3,71=3,172=1/1,23;
 2/12=2,15=1,17=6,18=5,29=1,40=1/2;
 3/5=4,6=6,7=1111,11=2,25=1,30=1,70=2101,71=2,72=1,74=-58,140=1/1,2,3;
 4//1;
 5/5=2,38=5,53=1/2;
 8/6=4,10=90,11=11/1;
 11/6=1,8=1,9=11,15=111,16=1,31=1/1,2,10;
 10/6=1,13=1,31=1/2;
 6/7=2,8=2,9=2,10=2,28=1/1;
 7/10=1,18=20,25=1,30=1/1,2,3,16;
 1/6=50,10=4,18=10,26=3,42=6,44=3,71=3/23(2);
 2/15=1,29=1/2;
 99/5=20/99;
 2/15=1,29=1/2;
 3/5=4,6=6,7=1111,11=2,25=1,30=1,70=2105,71=2,72=1,74=-58,140=1/1,2,3;
 4/5=5,16=3,69=1/1;
 5/5=2,38=5,53=1/2;
 8/6=4,10=90,11=11/1;
 11/6=1,8=1,9=11,15=111,16=1,31=1/1,2,10;
 10/6=1,13=1,31=1/2;
 7/10=1,18=20,25=1,30=1/1,2,3,16;
 1/6=50,18=10,26=3,42=6,44=3,71=3/23(-8);
 2/15=1,29=1/2;
 6/7=2,8=2,9=2,10=2,19=2,28=1/1;
 99/5=20,9=1/99;
 --------
 dimerirc
 --------
 Symbolic Z-matrix:
 Charge = -1 Multiplicity = 1
 Si                    0.21241  -0.55883  -0.05251 
 O                     0.58759   0.88422  -0.77015 
 O                     0.11331  -1.70863  -1.30593 
 O                     1.50822  -0.94772   0.89646 
 O                    -1.20026  -0.56775   0.72498 
 Ca                    2.63069   1.97605  -0.28178 
 O                     2.03376   1.63678  -2.70622 
 O                     0.52571   3.3185   -0.09924 
 O                     2.2649    1.20083   1.97404 
 O                     3.59532  -0.22914  -0.28199 
 H                     0.20583   2.38882  -0.29944 
 H                     0.13158   3.58976   0.73116 
 H                     1.31056   1.16208  -2.19895 
 H                     2.46303   0.99164  -3.27006 
 H                     1.88753   0.27882   1.68893 
 H                     1.63018   1.6028    2.5686 
 H                     2.76989  -0.68479   0.1661 
 H                     3.79761  -0.71254  -1.08398 
 H                    -0.73398  -2.16865  -1.1968 
 Si                   -3.27656  -1.6361    0.53962 
 O                    -4.67048  -2.51315   0.65389 
 O                    -2.37802  -2.60707  -0.52093 
 O                    -3.76151  -0.1826   -0.10233 
 O                    -2.8357   -1.6309    2.17713 
 Ca                   -6.66934  -1.72936   1.61254 
 O                    -6.83642  -2.95798  -0.62176 
 O                    -5.77988  -4.07272   2.3571 
 O                    -5.14222  -1.28505   3.46269 
 O                    -6.34622   0.16796   0.52598 
 H                    -5.10534  -3.66882   1.74253 
 H                    -5.40648  -4.00291   3.2381 
 H                    -5.86178  -2.85868  -0.43095 
 H                    -7.02433  -2.41262  -1.38759 
 H                    -5.15906  -0.51889   4.03823 
 H                    -4.22051  -1.36353   3.11292 
 H                    -4.72869  -0.02249   0.06329 
 H                    -6.66171   1.06949   0.54299 
 H                    -2.93675  -3.33288  -0.80686 
 H                    -1.98853  -1.13886   2.14122 
 
 IRC-IRC-IRC-IRC-IRC-IRC-IRC-IRC-IRC-IRC-IRC-IRC-IRC-IRC-IRC-IRC-IRC-IRC
 ------------------------------------------------------------------------
 INPUT DATA FOR L123
 ------------------------------------------------------------------------
 GENERAL PARAMETERS:
 Follow reaction path in both directions.
 Maximum points per path      =   6
 Step size                    =   0.100 bohr
 Integration scheme           = HPC                                 
    Redo corrector integration= Yes                                 
    DWI Weight Power          =  2
    DWI will use Hessian update vectors when possible.
    Max correction cycles     =  50
 Initial Hessian              = CalcFC
 Hessian evaluation           = Analytic every   3 predictor steps
                              = Update at all corrector steps
 Hessian updating method      = Bofill                              
 ------------------------------------------------------------------------
 IRC-IRC-IRC-IRC-IRC-IRC-IRC-IRC-IRC-IRC-IRC-IRC-IRC-IRC-IRC-IRC-IRC-IRC
                          Input orientation:                          
 ---------------------------------------------------------------------
 Center     Atomic      Atomic             Coordinates (Angstroms)
 Number     Number       Type             X           Y           Z
 ---------------------------------------------------------------------
      1         14           0        0.212409   -0.558831   -0.052509
      2          8           0        0.587591    0.884224   -0.770147
      3          8           0        0.113305   -1.708632   -1.305926
      4          8           0        1.508220   -0.947724    0.896462
      5          8           0       -1.200256   -0.567746    0.724984
      6         20           0        2.630687    1.976046   -0.281776
      7          8           0        2.033756    1.636784   -2.706215
      8          8           0        0.525713    3.318498   -0.099239
      9          8           0        2.264897    1.200833    1.974040
     10          8           0        3.595315   -0.229143   -0.281991
     11          1           0        0.205834    2.388822   -0.299435
     12          1           0        0.131582    3.589763    0.731155
     13          1           0        1.310558    1.162083   -2.198946
     14          1           0        2.463027    0.991635   -3.270064
     15          1           0        1.887530    0.278819    1.688932
     16          1           0        1.630183    1.602801    2.568600
     17          1           0        2.769893   -0.684786    0.166097
     18          1           0        3.797606   -0.712540   -1.083977
     19          1           0       -0.733978   -2.168654   -1.196804
     20         14           0       -3.276560   -1.636098    0.539620
     21          8           0       -4.670475   -2.513154    0.653892
     22          8           0       -2.378022   -2.607071   -0.520925
     23          8           0       -3.761508   -0.182598   -0.102329
     24          8           0       -2.835698   -1.630900    2.177134
     25         20           0       -6.669342   -1.729358    1.612540
     26          8           0       -6.836418   -2.957976   -0.621763
     27          8           0       -5.779884   -4.072716    2.357102
     28          8           0       -5.142220   -1.285051    3.462693
     29          8           0       -6.346216    0.167958    0.525980
     30          1           0       -5.105338   -3.668818    1.742527
     31          1           0       -5.406477   -4.002914    3.238103
     32          1           0       -5.861784   -2.858682   -0.430953
     33          1           0       -7.024335   -2.412624   -1.387587
     34          1           0       -5.159057   -0.518890    4.038233
     35          1           0       -4.220515   -1.363527    3.112924
     36          1           0       -4.728692   -0.022488    0.063287
     37          1           0       -6.661706    1.069486    0.542992
     38          1           0       -2.936746   -3.332883   -0.806855
     39          1           0       -1.988525   -1.138862    2.141216
 ---------------------------------------------------------------------
                    Distance matrix (angstroms):
                    1          2          3          4          5
     1  Si   0.000000
     2  O    1.654743   0.000000
     3  O    1.703795   2.689779   0.000000
     4  O    1.652546   2.642192   2.715747   0.000000
     5  O    1.612513   2.745912   2.674259   2.740370   0.000000
     6  Ca   3.510874   2.367451   4.578531   3.346133   4.707501
     7  O    3.896176   2.531027   4.103748   4.464880   5.204989
     8  O    3.890247   2.525794   5.186348   4.489698   4.331421
     9  O    3.378761   3.231742   4.883903   2.519927   4.085988
    10  O    3.406671   3.244116   3.919404   2.502214   4.911838
    11  H    2.957985   1.622074   4.220274   3.776098   3.430425
    12  H    4.222735   3.127586   5.676533   4.744602   4.365628
    13  H    2.962207   1.625224   3.236032   3.751254   4.224436
    14  H    4.221598   3.127041   4.082949   4.693901   5.640188
    15  H    2.557402   2.846652   4.008368   1.508739   3.343694
    16  H    3.681433   3.570796   5.317749   3.052228   4.015169
    17  H    2.569898   2.846188   3.205085   1.481347   4.011002
    18  H    3.733790   3.598936   3.823027   3.036238   5.317135
    19  H    2.190112   3.353900   0.970266   3.301497   2.544325
    20  Si   3.699193   4.795746   3.860374   4.847197   2.342386
    21  O    5.306688   6.420072   5.231892   6.378533   3.978955
    22  O    3.335421   4.587604   2.762269   4.457050   2.664258
    23  O    3.991998   4.527555   4.334928   5.417844   2.718970
    24  O    3.925761   5.170225   4.564468   4.580008   2.431811
    25  Ca   7.176421   8.072861   7.383913   8.245983   5.661095
    26  O    7.467658   8.360648   7.094194   8.716599   6.268433
    27  O    7.352631   8.654229   7.330508   8.063219   5.993464
    28  O    6.446402   7.446705   7.109127   7.136363   4.852696
    29  O    6.624080   7.090181   6.971577   7.941925   5.202093
    30  H    6.416588   7.710588   6.353710   7.201342   5.089372
    31  H    7.366255   8.710857   7.508657   7.913944   5.984015
    32  H    6.506025   7.464505   6.147348   7.728567   5.321130
    33  H    7.588771   8.318164   7.172739   8.953620   6.464242
    34  H    6.751919   7.623202   7.600876   7.382900   5.162568
    35  H    5.506207   6.576360   6.198978   6.156623   3.931601
    36  H    4.971474   5.457069   5.306860   6.359977   3.631117
    37  H    7.089393   7.369597   7.552298   8.422694   5.704479
    38  H    4.263986   5.496025   3.491429   5.324284   3.606648
    39  H    3.161167   4.382383   4.077391   3.716608   1.718504
                    6          7          8          9         10
     6  Ca   0.000000
     7  O    2.519788   0.000000
     8  O    2.503280   3.449446   0.000000
     9  O    2.413185   4.706194   3.436241   0.000000
    10  O    2.406941   3.434678   4.694849   2.984044   0.000000
    11  H    2.459798   3.114394   1.003344   3.289338   4.282829
    12  H    3.142553   4.387243   0.958373   3.435518   5.254327
    13  H    2.465931   1.002835   3.110446   4.280897   3.290948
    14  H    3.150721   0.958341   4.384245   5.252014   3.420666
    15  H    2.704913   4.602474   3.780443   1.036244   2.656895
    16  H    3.043840   5.290340   3.358695   0.958093   3.917095
    17  H    2.701850   3.765868   4.597068   2.660684   1.043894
    18  H    3.038704   3.355912   5.284341   3.919396   0.958006
    19  H    5.416344   4.941663   5.735879   5.513705   4.831290
    20  Si   6.972650   7.031832   6.278013   6.388543   7.062382
    21  O    8.621796   8.570824   7.847021   7.977210   8.626463
    22  O    6.793329   6.499968   6.612251   6.502436   6.433691
    23  O    6.749230   6.608741   5.535156   6.522480   7.359164
    24  O    6.995546   7.631280   6.401367   5.837468   7.026389
    25  Ca  10.188670  10.282338   8.954320   9.409428  10.545287
    26  O   10.681116  10.204741   9.688557  10.337689  10.788097
    27  O   10.690599  10.921929  10.021188   9.626814  10.470541
    28  O    9.223551   9.903897   8.124376   7.953684   9.564628
    29  O    9.192738   9.101015   7.585526   8.792893   9.982211
    30  H    9.788175   9.945219   9.160973   8.836711   9.572429
    31  H   10.617604  11.067889   9.996590   9.355577  10.376159
    32  H    9.773378   9.366194   8.892002   9.397159   9.816995
    33  H   10.663146  10.009271   9.566025  10.518909  10.898023
    34  H    9.250259  10.093120   8.010046   7.895152   9.766643
    35  H    8.343603   9.054289   7.400407   7.066369   8.596480
    36  H    7.633719   7.493599   6.228754   7.352399   8.333728
    37  H    9.372868   9.300013   7.558406   9.041537  10.371765
    38  H    7.710820   7.280869   7.531946   7.439425   7.250966
    39  H    6.075415   6.883353   5.586510   4.857337   6.154575
                   11         12         13         14         15
    11  H    0.000000
    12  H    1.584263   0.000000
    13  H    2.516634   3.983605   0.000000
    14  H    3.983929   5.309958   1.582571   0.000000
    15  H    3.351689   3.868209   4.028480   5.042910   0.000000
    16  H    3.297306   3.093546   4.798530   5.929347   1.610271
    17  H    4.029663   5.054873   3.336767   3.835591   2.006521
    18  H    4.809863   5.936687   3.307987   3.076409   3.510015
    19  H    4.739104   6.133970   4.034628   4.950422   4.603249
    20  Si   5.388048   6.241934   6.030855   7.373027   5.626335
    21  O    6.979727   7.766036   7.577520   8.863849   7.202350
    22  O    5.628882   6.801953   5.534248   6.629043   5.604174
    23  O    4.731898   5.484665   5.650648   7.082246   5.944170
    24  O    5.616269   6.176644   6.643965   8.039039   5.118032
    25  Ca   8.239120   8.678851   9.304121  10.707184   8.789691
    26  O    8.847907   9.656930   9.264751  10.444740   9.587670
    27  O    9.199863   9.813395   9.921445  11.191882   8.841467
    28  O    7.500175   7.683625   8.926419  10.409279   7.416826
    29  O    6.967274   7.328896   8.187777   9.627625   8.316208
    30  H    8.311026   9.007508   8.946314  10.204217   8.030374
    31  H    9.212302   9.726440  10.067634  11.367975   8.598587
    32  H    8.023066   8.879942   8.410401   9.601457   8.624946
    33  H    8.747188   9.577310   9.105343  10.253913   9.804600
    34  H    7.486802   7.470519   9.142428  10.667195   7.470605
    35  H    6.731782   7.010610   8.073874   9.537246   6.483307
    36  H    5.504138   6.092345   6.556939   7.991276   6.819670
    37  H    7.043681   7.248170   8.431120   9.889702   8.661857
    38  H    6.547610   7.726781   6.338945   7.343460   6.522805
    39  H    4.818355   5.370570   5.917373   7.323748   4.151889
                   16         17         18         19         20
    16  H    0.000000
    17  H    3.507708   0.000000
    18  H    4.837339   1.618533   0.000000
    19  H    5.830214   4.041841   4.761119   0.000000
    20  Si   6.219594   6.132219   7.316615   3.124661   0.000000
    21  O    7.765661   7.677236   8.830107   4.363458   1.650844
    22  O    6.582848   5.537888   6.484185   1.830820   1.695557
    23  O    6.276292   6.556176   7.640987   3.782622   1.661305
    24  O    5.527582   6.030096   7.448419   4.011217   1.695830
    25  Ca   8.994412   9.606377  10.856432   6.581333   3.559610
    26  O   10.132247   9.902996  10.878331   6.180087   3.970990
    27  O    9.336237   9.453955  10.717281   6.458860   3.937890
    28  O    7.416504   8.592403  10.045918   6.474895   3.485438
    29  O    8.357871   9.162976  10.308461   6.318620   3.560561
    30  H    8.592998   8.567896   9.797506   5.477129   2.987200
    31  H    9.021467   9.343459  10.687473   6.698146   4.173748
    32  H    9.221264   8.921219   9.916460   5.230398   3.019951
    33  H   10.328395  10.066095  10.958872   6.297977   4.285200
    34  H    7.263276   8.825486  10.319707   7.050437   4.127014
    35  H    6.582253   7.616448   9.073479   5.601600   2.754494
    36  H    7.025201   7.528478   8.630767   4.706548   2.222458
    37  H    8.552364   9.600759  10.734051   6.974984   4.333522
    38  H    7.524062   6.365908   7.231493   2.521840   2.192612
    39  H    4.560090   5.172023   6.637992   3.711703   2.114566
                   21         22         23         24         25
    21  O    0.000000
    22  O    2.577665   0.000000
    23  O    2.613347   2.822645   0.000000
    24  O    2.542645   2.905495   2.854935   0.000000
    25  Ca   2.351342   4.872113   3.713319   3.876246   0.000000
    26  O    2.552738   4.473321   4.174638   5.059715   2.555294
    27  O    2.562020   4.690823   5.025501   3.829241   2.614734
    28  O    3.101636   5.025708   3.978838   2.663140   2.439790
    29  O    3.164306   4.954126   2.682979   4.276206   2.210165
    30  H    1.646144   3.699834   4.166906   3.081113   2.494897
    31  H    3.072333   5.024959   5.334719   3.655272   3.066976
    32  H    1.647876   3.493995   3.417686   4.179326   2.470503
    33  H    3.117435   4.730448   4.155833   5.555449   3.097359
    34  H    3.958480   5.734159   4.382977   3.177775   3.103253
    35  H    2.751535   4.259817   3.455884   1.692604   2.895123
    36  H    2.560395   3.542178   0.994238   3.261712   3.013256
    37  H    4.100318   5.744470   3.224175   4.959924   2.996251
    38  H    2.410716   0.959548   3.331799   3.436735   4.728323
    39  H    3.360605   3.065019   3.015195   0.980354   4.747445
                   26         27         28         29         30
    26  O    0.000000
    27  O    3.351499   0.000000
    28  O    4.727765   3.065946   0.000000
    29  O    3.365869   4.653714   3.490720   0.000000
    30  H    3.015261   0.997922   2.939843   4.211961   0.000000
    31  H    4.246786   0.959410   2.739900   5.063091   1.561747
    32  H    0.998088   3.042012   4.260818   3.211066   2.439784
    33  H    0.958753   4.281035   5.323438   3.283441   3.880488
    34  H    5.520710   3.980114   0.958401   3.770547   3.898102
    35  H    4.830435   3.215992   0.988958   3.681892   2.824051
    36  H    3.678164   4.771890   3.649799   1.693145   4.032051
    37  H    4.196144   5.523662   4.046892   0.955288   5.129590
    38  H    3.922022   4.317570   5.223674   5.065256   3.363776
    39  H    5.869011   4.798803   3.422494   4.827653   4.034124
                   31         32         33         34         35
    31  H    0.000000
    32  H    3.870212   0.000000
    33  H    5.152038   1.570236   0.000000
    34  H    3.583273   5.093336   6.041938   0.000000
    35  H    2.896298   4.181903   5.405239   1.565398   0.000000
    36  H    5.136403   3.093892   3.617701   4.028874   3.370002
    37  H    5.879495   4.125403   3.997965   4.122815   4.299246
    38  H    4.786460   2.986974   4.229954   6.027612   4.570678
    39  H    4.592205   4.957416   6.279674   3.746373   2.444682
                   36         37         38         39
    36  H    0.000000
    37  H    2.271358   0.000000
    38  H    3.863539   5.922691   0.000000
    39  H    3.615604   5.410152   3.795257   0.000000
 Symmetry turned off by external request.
 Stoichiometry    Ca2H19O16Si2(1-)
 Framework group  C1[X(Ca2H19O16Si2)]
 Deg. of freedom   111
 Full point group                 C1      NOp   1
 Rotational constants (GHZ):           0.4368757           0.0797749           0.0789984
 Standard basis: 6-311++G(d,p) (5D, 7F)
   631 basis functions,   997 primitive gaussians,   653 cartesian basis functions
   108 alpha electrons      108 beta electrons
       nuclear repulsion energy      2841.2782418352 Hartrees.
 NAtoms=   39 NActive=   39 NUniq=   39 SFac= 1.00D+00 NAtFMM=   60 NAOKFM=F Big=F
 Integral buffers will be    131072 words long.
 Raffenetti 2 integral format.
 Two-electron integral symmetry is turned off.
 Nuclear repulsion after empirical dispersion term =     2841.2470854352 Hartrees.
 Force inversion solution in PCM.
 ------------------------------------------------------------------------------
 Polarizable Continuum Model (PCM)
 =================================
 Model                : C-PCM.
 Atomic radii         : UFF (Universal Force Field).
 Polarization charges : Total charges.
 Charge compensation  : None.
 Solution method      : Matrix inversion.
 Cavity type          : Scaled VdW (van der Waals Surface) (Alpha=1.100).
 Cavity algorithm     : GePol (No added spheres)
                        Default sphere list used, NSphG=   39.
                        Lebedev-Laikov grids with approx.  5.0 points / Ang**2.
                        Smoothing algorithm: York/Karplus (Gamma=1.0000).
                        Polarization charges: spherical gaussians, with
                                              point-specific exponents (IZeta= 3).
                        Self-potential: point-specific (ISelfS= 7).
                        Self-field    : sphere-specific E.n sum rule (ISelfD= 2).
 1st derivatives      : Analytical E(r).r(x)/FMM algorithm (CHGder, D1EAlg=3).
                        Cavity 1st derivative terms included.
 2nd derivatives      : Analytical E(r).r(xy)/FMM algorithm (CHGder, D2EAlg=3).
                        Cavity 2nd derivative terms included.
 Solvent              : Water, Eps=  78.355300 Eps(inf)=   1.777849
 ------------------------------------------------------------------------------
 One-electron integrals computed using PRISM.
 NBasis=   631 RedAO= T EigKep=  8.33D-05  NBF=   631
 NBsUse=   631 1.00D-06 EigRej= -1.00D+00 NBFU=   631
 ExpMin= 7.10D-03 ExpMax= 2.03D+05 ExpMxC= 6.92D+03 IAcc=3 IRadAn=         5 AccDes= 0.00D+00
 Harris functional with IExCor= 4639 and IRadAn=       5 diagonalized for initial guess.
 HarFok:  IExCor= 4639 AccDes= 0.00D+00 IRadAn=         5 IDoV= 1 UseB2=F ITyADJ=14
 ICtDFT=  3500011 ScaDFX=  1.000000  1.000000  1.000000  1.000000
 FoFCou: FMM=F IPFlag=           0 FMFlag=      100000 FMFlg1=           0
         NFxFlg=           0 DoJE=T BraDBF=F KetDBF=T FulRan=T
         wScrn=  0.000000 ICntrl=       500 IOpCl=  0 I1Cent=   200000004 NGrid=           0
         NMat0=    1 NMatS0=      1 NMatT0=    0 NMatD0=    1 NMtDS0=    0 NMtDT0=    0
 Symmetry not used in FoFCou.
 Requested convergence on RMS density matrix=1.00D-08 within 128 cycles.
 Requested convergence on MAX density matrix=1.00D-06.
 Requested convergence on             energy=1.00D-06.
 No special actions if energy rises.
 Inv3:  Mode=1 IEnd=    34496643.
 Iteration    1 A*A^-1 deviation from unit magnitude is 9.10D-15 for     22.
 Iteration    1 A*A^-1 deviation from orthogonality  is 7.99D-15 for   2955    930.
 Iteration    1 A^-1*A deviation from unit magnitude is 9.10D-15 for     22.
 Iteration    1 A^-1*A deviation from orthogonality  is 5.11D-15 for   2057    804.
 Error on total polarization charges =  0.02360
 SCF Done:  E(RwB97XD) =  -3150.29992590     A.U. after   14 cycles
            NFock= 14  Conv=0.76D-08     -V/T= 2.0022
 DoSCS=F DFT=T ScalE2(SS,OS)=  1.000000  1.000000
 Range of M.O.s used for correlation:     1   631
 NBasis=   631 NAE=   108 NBE=   108 NFC=     0 NFV=     0
 NROrb=    631 NOA=   108 NOB=   108 NVA=   523 NVB=   523

 **** Warning!!: The largest alpha MO coefficient is  0.19705892D+02

 Symmetrizing basis deriv contribution to polar:
 IMax=3 JMax=2 DiffMx= 0.00D+00
 G2DrvN: will do    40 centers at a time, making    1 passes.
 Calling FoFCou, ICntrl=  3107 FMM=F I1Cent=   0 AccDes= 0.00D+00.
 NEqPCM:  Using equilibrium solvation (IEInf=0, Eps=  78.3553, EpsInf=   1.7778)
 G2PCM: DoFxE=T DoFxN=T DoGrad=T DoDP/DQ/DG/TGxP=FFFF NFrqRd=   0 IEInf=0 SqF1=F DoCFld=F IF1Alg=4.
 End of G2Drv F.D. properties file   721 does not exist.
 End of G2Drv F.D. properties file   722 does not exist.
 End of G2Drv F.D. properties file   788 does not exist.
          IDoAtm=111111111111111111111111111111111111111
 NEqPCM:  Using equilibrium solvation (IEInf=0, Eps=  78.3553, EpsInf=   1.7778)
          Differentiating once with respect to nuclear coordinates.
 CalDSu exits because no D1Ps are significant.
          There are   120 degrees of freedom in the 1st order CPHF.  IDoFFX=6 NUNeed=     0.
    114 vectors produced by pass  0 Test12= 5.65D-14 1.00D-09 XBig12= 1.11D-01 3.59D-02.
 AX will form   114 AO Fock derivatives at one time.
    114 vectors produced by pass  1 Test12= 5.65D-14 1.00D-09 XBig12= 3.81D-02 2.04D-02.
    114 vectors produced by pass  2 Test12= 5.65D-14 1.00D-09 XBig12= 9.18D-04 3.94D-03.
    114 vectors produced by pass  3 Test12= 5.65D-14 1.00D-09 XBig12= 1.03D-05 3.94D-04.
    114 vectors produced by pass  4 Test12= 5.65D-14 1.00D-09 XBig12= 1.11D-07 3.72D-05.
    114 vectors produced by pass  5 Test12= 5.65D-14 1.00D-09 XBig12= 1.18D-09 3.05D-06.
    114 vectors produced by pass  6 Test12= 5.65D-14 1.00D-09 XBig12= 1.03D-11 2.21D-07.
     60 vectors produced by pass  7 Test12= 5.65D-14 1.00D-09 XBig12= 8.44D-14 3.06D-08.
      4 vectors produced by pass  8 Test12= 5.65D-14 1.00D-09 XBig12= 6.47D-16 3.88D-09.
 InvSVY:  IOpt=1 It=  1 EMax= 9.99D-16
 Solved reduced A of dimension   862 with   120 vectors.
 End of Minotr F.D. properties file   721 does not exist.
 End of Minotr F.D. properties file   722 does not exist.
 End of Minotr F.D. properties file   788 does not exist.

 **********************************************************************

            Population analysis using the SCF Density.

 **********************************************************************

 Alpha  occ. eigenvalues -- -145.49217-145.47211 -66.28215 -66.22445 -19.25313
 Alpha  occ. eigenvalues --  -19.24264 -19.24238 -19.24083 -19.23739 -19.23345
 Alpha  occ. eigenvalues --  -19.23069 -19.22580 -19.21317 -19.19299 -19.18725
 Alpha  occ. eigenvalues --  -19.16140 -19.15497 -19.15218 -19.14646 -19.13102
 Alpha  occ. eigenvalues --  -15.48776 -15.46772 -12.60674 -12.60664 -12.60663
 Alpha  occ. eigenvalues --  -12.58679 -12.58675 -12.58628  -5.40425  -5.35067
 Alpha  occ. eigenvalues --   -3.74979  -3.74937  -3.74889  -3.69669  -3.69533
 Alpha  occ. eigenvalues --   -3.69487  -1.83733  -1.81915  -1.12546  -1.12445
 Alpha  occ. eigenvalues --   -1.12112  -1.11710  -1.11559  -1.10699  -1.09869
 Alpha  occ. eigenvalues --   -1.09512  -1.09402  -1.08872  -1.08231  -1.08175
 Alpha  occ. eigenvalues --   -1.07885  -1.07838  -1.07054  -1.04844  -1.04599
 Alpha  occ. eigenvalues --   -0.98623  -0.98183  -0.97235  -0.95670  -0.94333
 Alpha  occ. eigenvalues --   -0.63749  -0.63100  -0.62899  -0.62109  -0.61947
 Alpha  occ. eigenvalues --   -0.61274  -0.60901  -0.59774  -0.56890  -0.55729
 Alpha  occ. eigenvalues --   -0.54922  -0.51553  -0.50505  -0.49355  -0.48753
 Alpha  occ. eigenvalues --   -0.48697  -0.48633  -0.48445  -0.48121  -0.47750
 Alpha  occ. eigenvalues --   -0.46962  -0.45479  -0.44279  -0.43527  -0.42877
 Alpha  occ. eigenvalues --   -0.42244  -0.41840  -0.41612  -0.41441  -0.40971
 Alpha  occ. eigenvalues --   -0.40661  -0.40257  -0.40053  -0.39948  -0.38829
 Alpha  occ. eigenvalues --   -0.38140  -0.36828  -0.36511  -0.35429  -0.34656
 Alpha  occ. eigenvalues --   -0.34444  -0.34007  -0.33775  -0.33487  -0.33191
 Alpha  occ. eigenvalues --   -0.31645  -0.31318  -0.29764
 Alpha virt. eigenvalues --    0.01456   0.01553   0.01941   0.01990   0.02312
 Alpha virt. eigenvalues --    0.02360   0.02381   0.03251   0.05419   0.05580
 Alpha virt. eigenvalues --    0.06717   0.06880   0.06948   0.07040   0.07327
 Alpha virt. eigenvalues --    0.07625   0.08017   0.08372   0.08600   0.08953
 Alpha virt. eigenvalues --    0.09172   0.09456   0.10101   0.10371   0.10829
 Alpha virt. eigenvalues --    0.11294   0.11525   0.12489   0.12775   0.13026
 Alpha virt. eigenvalues --    0.13531   0.13828   0.14199   0.14267   0.15064
 Alpha virt. eigenvalues --    0.15270   0.15987   0.16584   0.16773   0.17189
 Alpha virt. eigenvalues --    0.17351   0.17486   0.17653   0.17929   0.18057
 Alpha virt. eigenvalues --    0.18287   0.18722   0.19161   0.20122   0.21209
 Alpha virt. eigenvalues --    0.21426   0.21733   0.21770   0.22293   0.22567
 Alpha virt. eigenvalues --    0.22749   0.23056   0.23568   0.23831   0.24285
 Alpha virt. eigenvalues --    0.24508   0.24851   0.25230   0.25377   0.25648
 Alpha virt. eigenvalues --    0.26129   0.26422   0.26523   0.27017   0.27371
 Alpha virt. eigenvalues --    0.27546   0.27752   0.28048   0.28270   0.28755
 Alpha virt. eigenvalues --    0.29268   0.29586   0.29860   0.30210   0.30231
 Alpha virt. eigenvalues --    0.31000   0.31147   0.31397   0.31517   0.32045
 Alpha virt. eigenvalues --    0.32201   0.32420   0.32697   0.32978   0.33304
 Alpha virt. eigenvalues --    0.33385   0.33727   0.34104   0.34319   0.34679
 Alpha virt. eigenvalues --    0.34829   0.35135   0.35466   0.35560   0.35758
 Alpha virt. eigenvalues --    0.35963   0.36221   0.36595   0.36798   0.37060
 Alpha virt. eigenvalues --    0.37274   0.37926   0.38194   0.38668   0.38847
 Alpha virt. eigenvalues --    0.39122   0.39338   0.39693   0.40027   0.40468
 Alpha virt. eigenvalues --    0.40615   0.40955   0.41443   0.42520   0.42839
 Alpha virt. eigenvalues --    0.43345   0.43570   0.43846   0.44143   0.44564
 Alpha virt. eigenvalues --    0.45225   0.45456   0.45710   0.45798   0.46209
 Alpha virt. eigenvalues --    0.47026   0.47264   0.47782   0.48232   0.48763
 Alpha virt. eigenvalues --    0.49365   0.49774   0.50226   0.51004   0.51613
 Alpha virt. eigenvalues --    0.52595   0.52912   0.53503   0.53841   0.54401
 Alpha virt. eigenvalues --    0.55842   0.55971   0.56577   0.56829   0.57477
 Alpha virt. eigenvalues --    0.58695   0.59601   0.60619   0.61475   0.62324
 Alpha virt. eigenvalues --    0.63739   0.64549   0.65089   0.65632   0.66120
 Alpha virt. eigenvalues --    0.66394   0.66897   0.67146   0.67587   0.68475
 Alpha virt. eigenvalues --    0.69500   0.70653   0.71109   0.71402   0.72404
 Alpha virt. eigenvalues --    0.73037   0.75014   0.75363   0.76562   0.77456
 Alpha virt. eigenvalues --    0.79517   0.81340   0.84167   0.85987   0.86781
 Alpha virt. eigenvalues --    0.87377   0.88957   0.89164   0.90195   0.92977
 Alpha virt. eigenvalues --    0.96636   0.96960   1.01510   1.04072   1.04523
 Alpha virt. eigenvalues --    1.05278   1.06743   1.07658   1.08947   1.09654
 Alpha virt. eigenvalues --    1.09855   1.10087   1.10625   1.12259   1.13374
 Alpha virt. eigenvalues --    1.13709   1.14648   1.15383   1.15759   1.16197
 Alpha virt. eigenvalues --    1.17059   1.17373   1.18217   1.18556   1.19300
 Alpha virt. eigenvalues --    1.19826   1.20498   1.20975   1.21128   1.21583
 Alpha virt. eigenvalues --    1.21972   1.23634   1.23712   1.24489   1.24761
 Alpha virt. eigenvalues --    1.25589   1.25965   1.26661   1.26973   1.27104
 Alpha virt. eigenvalues --    1.27550   1.28416   1.29016   1.29639   1.29972
 Alpha virt. eigenvalues --    1.30046   1.31204   1.31347   1.31712   1.32499
 Alpha virt. eigenvalues --    1.32521   1.33790   1.34288   1.35175   1.35459
 Alpha virt. eigenvalues --    1.35935   1.36328   1.37599   1.39143   1.39528
 Alpha virt. eigenvalues --    1.39881   1.40702   1.42782   1.43092   1.43983
 Alpha virt. eigenvalues --    1.45326   1.45540   1.46842   1.47707   1.48031
 Alpha virt. eigenvalues --    1.48732   1.49691   1.50002   1.51072   1.52156
 Alpha virt. eigenvalues --    1.52352   1.53917   1.54141   1.55389   1.55925
 Alpha virt. eigenvalues --    1.56607   1.57025   1.58471   1.59362   1.60236
 Alpha virt. eigenvalues --    1.61218   1.61251   1.62818   1.62855   1.64641
 Alpha virt. eigenvalues --    1.65350   1.66030   1.66478   1.68358   1.69177
 Alpha virt. eigenvalues --    1.69921   1.70560   1.70719   1.71324   1.73188
 Alpha virt. eigenvalues --    1.73698   1.74186   1.74769   1.76799   1.77675
 Alpha virt. eigenvalues --    1.78260   1.79448   1.80460   1.81035   1.81942
 Alpha virt. eigenvalues --    1.82964   1.84041   1.84350   1.86497   1.88462
 Alpha virt. eigenvalues --    1.88993   1.90063   1.91561   1.92137   1.94382
 Alpha virt. eigenvalues --    1.95611   1.96737   1.97900   1.99861   2.01656
 Alpha virt. eigenvalues --    2.02698   2.04492   2.08696   2.12900   2.16651
 Alpha virt. eigenvalues --    2.16757   2.17211   2.17802   2.18136   2.19416
 Alpha virt. eigenvalues --    2.22645   2.23174   2.23985   2.26331   2.27879
 Alpha virt. eigenvalues --    2.29405   2.29918   2.31523   2.36181   2.39137
 Alpha virt. eigenvalues --    2.43399   2.44057   2.47040   2.52961   2.59463
 Alpha virt. eigenvalues --    2.60363   2.62991   2.65553   2.66450   2.69118
 Alpha virt. eigenvalues --    2.71047   2.72171   2.73394   2.76933   2.79213
 Alpha virt. eigenvalues --    2.81653   2.85024   2.85924   2.87860   2.88882
 Alpha virt. eigenvalues --    2.90929   2.92269   2.92762   2.94318   2.99356
 Alpha virt. eigenvalues --    3.00893   3.01390   3.01671   3.02532   3.03778
 Alpha virt. eigenvalues --    3.05493   3.07063   3.08670   3.09399   3.10485
 Alpha virt. eigenvalues --    3.11344   3.12587   3.13707   3.13875   3.14182
 Alpha virt. eigenvalues --    3.16173   3.16497   3.16919   3.17142   3.19657
 Alpha virt. eigenvalues --    3.20443   3.20563   3.20815   3.21195   3.21295
 Alpha virt. eigenvalues --    3.22088   3.22521   3.23211   3.23355   3.23783
 Alpha virt. eigenvalues --    3.25494   3.26209   3.26706   3.27817   3.28604
 Alpha virt. eigenvalues --    3.29627   3.30196   3.31158   3.32275   3.33181
 Alpha virt. eigenvalues --    3.35180   3.35573   3.35989   3.38054   3.38213
 Alpha virt. eigenvalues --    3.40319   3.41055   3.43338   3.43963   3.44659
 Alpha virt. eigenvalues --    3.45671   3.45817   3.46489   3.48044   3.50232
 Alpha virt. eigenvalues --    3.53007   3.60393   3.62198   3.65959   3.82367
 Alpha virt. eigenvalues --    3.83185   3.83795   3.84026   3.84342   3.84997
 Alpha virt. eigenvalues --    3.89722   4.02534   4.02741   4.03063   4.03720
 Alpha virt. eigenvalues --    4.03973   4.04348   4.04897   4.05413   4.06200
 Alpha virt. eigenvalues --    4.06923   4.08189   4.09263   4.48741   4.49043
 Alpha virt. eigenvalues --    4.51912   4.54646   4.57509   4.61042   5.12656
 Alpha virt. eigenvalues --    5.14426   5.15202   5.16486   5.17897   5.18494
 Alpha virt. eigenvalues --    5.18957   5.20093   5.20516   5.20916   5.21443
 Alpha virt. eigenvalues --    5.21631   5.21904   5.23874   5.25685   5.27244
 Alpha virt. eigenvalues --    5.28167   5.30371   5.30568   5.33097   5.34379
 Alpha virt. eigenvalues --    5.35467   5.37804   5.40352   5.42367   5.43896
 Alpha virt. eigenvalues --    5.46464   5.47335   5.49099   5.49683   5.54286
 Alpha virt. eigenvalues --    5.55244   5.56444   5.57751   5.58272   5.61900
 Alpha virt. eigenvalues --    5.69348   5.72706   5.75937   5.76774   5.76947
 Alpha virt. eigenvalues --    5.78277   5.79198   5.80780   5.81581   5.83367
 Alpha virt. eigenvalues --    5.83494   5.85196   6.20041   6.24006  11.67741
 Alpha virt. eigenvalues --   11.68112  11.72547  11.73157  11.82044  11.90044
 Alpha virt. eigenvalues --   14.92549  14.94414  50.03856  50.04109  50.04410
 Alpha virt. eigenvalues --   50.04980  50.05099  50.06410  50.08384  50.09795
 Alpha virt. eigenvalues --   50.11131  50.14055  50.15163  50.15892  50.19159
 Alpha virt. eigenvalues --   50.20249  50.22836  50.25789 108.65341 108.66652
 Alpha virt. eigenvalues --  108.67606 108.69981 108.71532 108.74920 141.63665
 Alpha virt. eigenvalues --  141.70318 318.03096 318.04983
          Condensed to atoms (all electrons):
               1          2          3          4          5          6
     1  Si  12.403910   0.068744   0.154753  -0.003273   0.226003   0.013726
     2  O    0.068744   9.305058   0.009388  -0.039650   0.012621   0.059554
     3  O    0.154753   0.009388   8.391381  -0.011904  -0.064875  -0.006699
     4  O   -0.003273  -0.039650  -0.011904   9.247943  -0.057942  -0.040086
     5  O    0.226003   0.012621  -0.064875  -0.057942   8.922727   0.002958
     6  Ca   0.013726   0.059554  -0.006699  -0.040086   0.002958  18.470727
     7  O   -0.014959  -0.041219   0.001286  -0.008703   0.000197   0.032217
     8  O    0.003475  -0.052913   0.000128  -0.008842   0.001497   0.033731
     9  O    0.034597   0.005603  -0.000609  -0.038983  -0.006240   0.028456
    10  O   -0.001700   0.014413  -0.000382  -0.034405  -0.002470   0.025160
    11  H   -0.002112  -0.026495  -0.000936   0.022008  -0.013981  -0.020689
    12  H    0.001384   0.001298   0.000691   0.000618  -0.001545  -0.016971
    13  H    0.018643  -0.048186  -0.010935   0.019926   0.000386  -0.018118
    14  H   -0.001499   0.003026  -0.000144  -0.000241   0.000417  -0.015684
    15  H    0.024122  -0.026265   0.016293  -0.030300  -0.023189  -0.014331
    16  H    0.004672  -0.005144   0.000345  -0.005252  -0.000938  -0.014451
    17  H    0.077113  -0.047556  -0.028195  -0.072400   0.020596  -0.006370
    18  H    0.000700  -0.004329  -0.000529  -0.001751  -0.000164  -0.016099
    19  H   -0.006748   0.008199   0.254579   0.003893  -0.042148   0.001304
    20  Si  -0.125963  -0.006418  -0.013259   0.021572   0.113483  -0.000738
    21  O    0.025198  -0.000347  -0.003279   0.000396  -0.029448   0.000166
    22  O   -0.043208  -0.004863   0.016171  -0.005675   0.005684  -0.000623
    23  O    0.037007  -0.001227  -0.003001  -0.001043  -0.075983  -0.000965
    24  O   -0.005308   0.001401  -0.002447  -0.002603  -0.025196  -0.000192
    25  Ca  -0.001752   0.000005   0.000009   0.000051  -0.000256  -0.000200
    26  O    0.000848  -0.000001   0.000018   0.000000  -0.000016  -0.000011
    27  O    0.000255  -0.000001   0.000009   0.000000   0.000338   0.000048
    28  O    0.001335  -0.000013  -0.000001   0.000026  -0.001174   0.000040
    29  O    0.000514  -0.000017  -0.000053   0.000005  -0.001952  -0.000045
    30  H   -0.000110   0.000027  -0.000171  -0.000054   0.001279   0.000039
    31  H   -0.000096  -0.000001   0.000021   0.000009  -0.000043   0.000054
    32  H   -0.007731   0.000000   0.000208   0.000044  -0.000065   0.000085
    33  H    0.000532   0.000001  -0.000014  -0.000001   0.000080   0.000047
    34  H    0.000267  -0.000017   0.000000   0.000029  -0.000084   0.000029
    35  H   -0.003152   0.000163  -0.000043  -0.000468   0.005562  -0.000195
    36  H   -0.005527  -0.000368  -0.000338  -0.000095  -0.002230  -0.000168
    37  H    0.000613   0.000013   0.000009   0.000001   0.000042   0.000064
    38  H   -0.005830   0.000118   0.005718  -0.000183   0.022088  -0.000063
    39  H    0.019727  -0.001745   0.001883  -0.000720   0.005300   0.001255
               7          8          9         10         11         12
     1  Si  -0.014959   0.003475   0.034597  -0.001700  -0.002112   0.001384
     2  O   -0.041219  -0.052913   0.005603   0.014413  -0.026495   0.001298
     3  O    0.001286   0.000128  -0.000609  -0.000382  -0.000936   0.000691
     4  O   -0.008703  -0.008842  -0.038983  -0.034405   0.022008   0.000618
     5  O    0.000197   0.001497  -0.006240  -0.002470  -0.013981  -0.001545
     6  Ca   0.032217   0.033731   0.028456   0.025160  -0.020689  -0.016971
     7  O    8.027296   0.000713  -0.003781   0.038802  -0.004943  -0.000769
     8  O    0.000713   8.030246   0.035011  -0.004447   0.262016   0.309746
     9  O   -0.003781   0.035011   8.176477   0.003407  -0.025467   0.001828
    10  O    0.038802  -0.004447   0.003407   8.206432   0.004537  -0.000223
    11  H   -0.004943   0.262016  -0.025467   0.004537   0.475485  -0.006796
    12  H   -0.000769   0.309746   0.001828  -0.000223  -0.006796   0.406194
    13  H    0.267752  -0.003880   0.003601  -0.026423  -0.002663   0.003167
    14  H    0.309993  -0.001074  -0.000229   0.001465   0.004398   0.000020
    15  H    0.004336  -0.014526   0.134258  -0.004433   0.014304   0.001527
    16  H   -0.000121  -0.000336   0.308083  -0.004263   0.001987  -0.001405
    17  H   -0.013565   0.003404  -0.008363   0.127860  -0.003986  -0.000181
    18  H   -0.000689  -0.000200  -0.003894   0.304529   0.000257   0.000071
    19  H   -0.000912   0.000453  -0.000402  -0.000299  -0.000595  -0.000061
    20  Si   0.000950  -0.000723   0.000884   0.002694  -0.001787  -0.000483
    21  O    0.000001   0.000000   0.000002  -0.000001   0.000079  -0.000023
    22  O    0.000020   0.000044  -0.000019  -0.000032  -0.000815   0.000071
    23  O   -0.000017  -0.000149  -0.000172  -0.000019   0.000788  -0.000098
    24  O   -0.000004  -0.000022   0.000069  -0.000047  -0.000232   0.000001
    25  Ca   0.000016   0.000005   0.000002  -0.000081   0.000164  -0.000046
    26  O    0.000000   0.000000   0.000000   0.000000   0.000004  -0.000000
    27  O    0.000000  -0.000000   0.000000   0.000000   0.000000  -0.000000
    28  O   -0.000000   0.000001   0.000000   0.000000  -0.000042   0.000014
    29  O    0.000000  -0.000000   0.000001   0.000000   0.000016   0.000001
    30  H   -0.000000  -0.000003   0.000002   0.000002  -0.000018   0.000003
    31  H    0.000000   0.000000  -0.000001   0.000000  -0.000001   0.000000
    32  H   -0.000001  -0.000002  -0.000002   0.000001  -0.000062   0.000003
    33  H    0.000000   0.000000   0.000000   0.000000   0.000004  -0.000000
    34  H   -0.000000   0.000003  -0.000005   0.000000  -0.000003   0.000006
    35  H   -0.000001  -0.000009   0.000066  -0.000012  -0.000002  -0.000012
    36  H   -0.000007  -0.000122  -0.000027  -0.000011  -0.001188   0.000172
    37  H    0.000000   0.000011   0.000001   0.000000   0.000009   0.000002
    38  H    0.000026  -0.000022   0.000004   0.000031   0.000087   0.000004
    39  H    0.000062  -0.000569  -0.001111  -0.000203   0.001700  -0.000018
              13         14         15         16         17         18
     1  Si   0.018643  -0.001499   0.024122   0.004672   0.077113   0.000700
     2  O   -0.048186   0.003026  -0.026265  -0.005144  -0.047556  -0.004329
     3  O   -0.010935  -0.000144   0.016293   0.000345  -0.028195  -0.000529
     4  O    0.019926  -0.000241  -0.030300  -0.005252  -0.072400  -0.001751
     5  O    0.000386   0.000417  -0.023189  -0.000938   0.020596  -0.000164
     6  Ca  -0.018118  -0.015684  -0.014331  -0.014451  -0.006370  -0.016099
     7  O    0.267752   0.309993   0.004336  -0.000121  -0.013565  -0.000689
     8  O   -0.003880  -0.001074  -0.014526  -0.000336   0.003404  -0.000200
     9  O    0.003601  -0.000229   0.134258   0.308083  -0.008363  -0.003894
    10  O   -0.026423   0.001465  -0.004433  -0.004263   0.127860   0.304529
    11  H   -0.002663   0.004398   0.014304   0.001987  -0.003986   0.000257
    12  H    0.003167   0.000020   0.001527  -0.001405  -0.000181   0.000071
    13  H    0.473249  -0.011403  -0.004020  -0.000113   0.002926   0.004023
    14  H   -0.011403   0.408114  -0.000010   0.000083   0.003666  -0.002062
    15  H   -0.004020  -0.000010   0.598503  -0.005600   0.006033   0.006942
    16  H   -0.000113   0.000083  -0.005600   0.406872   0.007969  -0.000015
    17  H    0.002926   0.003666   0.006033   0.007969   0.615702  -0.003241
    18  H    0.004023  -0.002062   0.006942  -0.000015  -0.003241   0.408640
    19  H   -0.000112   0.000316  -0.000141  -0.000195   0.004838   0.000356
    20  Si  -0.000341  -0.000438   0.000118  -0.001096  -0.012815  -0.000072
    21  O   -0.000254   0.000014  -0.000078  -0.000009   0.000297  -0.000009
    22  O    0.002399  -0.000199  -0.000732   0.000089  -0.002094   0.000161
    23  O   -0.000045  -0.000001   0.000616  -0.000010  -0.000008   0.000015
    24  O    0.000201  -0.000011   0.000296   0.000041  -0.000279   0.000021
    25  Ca  -0.000067   0.000041   0.000105   0.000049   0.000288   0.000032
    26  O    0.000001  -0.000000  -0.000001   0.000000  -0.000000   0.000000
    27  O   -0.000001   0.000000   0.000002   0.000000  -0.000001  -0.000000
    28  O   -0.000001   0.000000   0.000027  -0.000017  -0.000004   0.000000
    29  O   -0.000003   0.000000   0.000001   0.000002   0.000004  -0.000000
    30  H    0.000026  -0.000002  -0.000004  -0.000004  -0.000062  -0.000001
    31  H   -0.000001  -0.000000   0.000001  -0.000001  -0.000001   0.000000
    32  H    0.000009  -0.000002   0.000023  -0.000003  -0.000054   0.000001
    33  H    0.000001  -0.000000  -0.000001   0.000000   0.000001  -0.000000
    34  H   -0.000004   0.000000   0.000002   0.000003   0.000006  -0.000000
    35  H    0.000064  -0.000002  -0.000048   0.000043  -0.000088   0.000002
    36  H    0.000133  -0.000006   0.000255  -0.000029  -0.000020  -0.000003
    37  H    0.000003  -0.000000  -0.000008   0.000000   0.000001   0.000000
    38  H    0.000349  -0.000039   0.000101   0.000019  -0.000532   0.000030
    39  H   -0.001218   0.000081  -0.000391   0.000016   0.003361  -0.000180
              19         20         21         22         23         24
     1  Si  -0.006748  -0.125963   0.025198  -0.043208   0.037007  -0.005308
     2  O    0.008199  -0.006418  -0.000347  -0.004863  -0.001227   0.001401
     3  O    0.254579  -0.013259  -0.003279   0.016171  -0.003001  -0.002447
     4  O    0.003893   0.021572   0.000396  -0.005675  -0.001043  -0.002603
     5  O   -0.042148   0.113483  -0.029448   0.005684  -0.075983  -0.025196
     6  Ca   0.001304  -0.000738   0.000166  -0.000623  -0.000965  -0.000192
     7  O   -0.000912   0.000950   0.000001   0.000020  -0.000017  -0.000004
     8  O    0.000453  -0.000723   0.000000   0.000044  -0.000149  -0.000022
     9  O   -0.000402   0.000884   0.000002  -0.000019  -0.000172   0.000069
    10  O   -0.000299   0.002694  -0.000001  -0.000032  -0.000019  -0.000047
    11  H   -0.000595  -0.001787   0.000079  -0.000815   0.000788  -0.000232
    12  H   -0.000061  -0.000483  -0.000023   0.000071  -0.000098   0.000001
    13  H   -0.000112  -0.000341  -0.000254   0.002399  -0.000045   0.000201
    14  H    0.000316  -0.000438   0.000014  -0.000199  -0.000001  -0.000011
    15  H   -0.000141   0.000118  -0.000078  -0.000732   0.000616   0.000296
    16  H   -0.000195  -0.001096  -0.000009   0.000089  -0.000010   0.000041
    17  H    0.004838  -0.012815   0.000297  -0.002094  -0.000008  -0.000279
    18  H    0.000356  -0.000072  -0.000009   0.000161   0.000015   0.000021
    19  H    0.457310   0.004811   0.004643  -0.028024  -0.001607  -0.002880
    20  Si   0.004811  12.634635   0.044186  -0.003315   0.185608  -0.007339
    21  O    0.004643   0.044186   9.192917  -0.026834   0.006350  -0.014511
    22  O   -0.028024  -0.003315  -0.026834   8.596139   0.016066   0.035640
    23  O   -0.001607   0.185608   0.006350   0.016066   8.427412  -0.000509
    24  O   -0.002880  -0.007339  -0.014511   0.035640  -0.000509   8.470892
    25  Ca  -0.000452   0.022023   0.022893   0.012233  -0.011597  -0.001534
    26  O   -0.000216   0.004092  -0.053615  -0.005317   0.001017   0.000395
    27  O   -0.000330  -0.010432  -0.065239  -0.001575   0.000361  -0.000316
    28  O   -0.000025  -0.002900  -0.015177  -0.001984  -0.008144  -0.007779
    29  O   -0.000108   0.005547  -0.002821  -0.003775  -0.029490  -0.003802
    30  H    0.000187   0.001380   0.004691  -0.000857   0.001037   0.005630
    31  H   -0.000030  -0.000897   0.005163  -0.000439   0.000102  -0.000054
    32  H    0.002416  -0.020319  -0.011404   0.013847  -0.014094   0.000203
    33  H   -0.000159   0.005263   0.003388  -0.000896   0.000524   0.000144
    34  H   -0.000029   0.002729   0.000786  -0.000681  -0.000234  -0.001167
    35  H    0.000151   0.025700  -0.011224   0.005728   0.010006   0.020446
    36  H    0.002449  -0.022960  -0.031583   0.015384   0.188444   0.014023
    37  H   -0.000035   0.001283   0.003044  -0.000497   0.004863  -0.000192
    38  H   -0.020781   0.038166  -0.026513   0.218559  -0.005472  -0.003275
    39  H   -0.001523  -0.035208   0.034619  -0.030119  -0.016385   0.220825
              25         26         27         28         29         30
     1  Si  -0.001752   0.000848   0.000255   0.001335   0.000514  -0.000110
     2  O    0.000005  -0.000001  -0.000001  -0.000013  -0.000017   0.000027
     3  O    0.000009   0.000018   0.000009  -0.000001  -0.000053  -0.000171
     4  O    0.000051   0.000000   0.000000   0.000026   0.000005  -0.000054
     5  O   -0.000256  -0.000016   0.000338  -0.001174  -0.001952   0.001279
     6  Ca  -0.000200  -0.000011   0.000048   0.000040  -0.000045   0.000039
     7  O    0.000016   0.000000   0.000000  -0.000000   0.000000  -0.000000
     8  O    0.000005   0.000000  -0.000000   0.000001  -0.000000  -0.000003
     9  O    0.000002   0.000000   0.000000   0.000000   0.000001   0.000002
    10  O   -0.000081   0.000000   0.000000   0.000000   0.000000   0.000002
    11  H    0.000164   0.000004   0.000000  -0.000042   0.000016  -0.000018
    12  H   -0.000046  -0.000000  -0.000000   0.000014   0.000001   0.000003
    13  H   -0.000067   0.000001  -0.000001  -0.000001  -0.000003   0.000026
    14  H    0.000041  -0.000000   0.000000   0.000000   0.000000  -0.000002
    15  H    0.000105  -0.000001   0.000002   0.000027   0.000001  -0.000004
    16  H    0.000049   0.000000   0.000000  -0.000017   0.000002  -0.000004
    17  H    0.000288  -0.000000  -0.000001  -0.000004   0.000004  -0.000062
    18  H    0.000032   0.000000  -0.000000   0.000000  -0.000000  -0.000001
    19  H   -0.000452  -0.000216  -0.000330  -0.000025  -0.000108   0.000187
    20  Si   0.022023   0.004092  -0.010432  -0.002900   0.005547   0.001380
    21  O    0.022893  -0.053615  -0.065239  -0.015177  -0.002821   0.004691
    22  O    0.012233  -0.005317  -0.001575  -0.001984  -0.003775  -0.000857
    23  O   -0.011597   0.001017   0.000361  -0.008144  -0.029490   0.001037
    24  O   -0.001534   0.000395  -0.000316  -0.007779  -0.003802   0.005630
    25  Ca  18.495360   0.029232   0.032115   0.016569   0.041523  -0.023735
    26  O    0.029232   7.980299   0.004372  -0.001671   0.013918  -0.013506
    27  O    0.032115   0.004372   7.973042   0.005430  -0.003120   0.298857
    28  O    0.016569  -0.001671   0.005430   8.142862  -0.002714  -0.006682
    29  O    0.041523   0.013918  -0.003120  -0.002714   8.853577   0.002434
    30  H   -0.023735  -0.013506   0.298857  -0.006682   0.002434   0.424269
    31  H   -0.013760  -0.000583   0.313978   0.009641  -0.000310  -0.012991
    32  H   -0.012890   0.287166  -0.012570  -0.000976  -0.010537   0.006442
    33  H   -0.013536   0.313768  -0.000637  -0.000064   0.004637   0.002835
    34  H   -0.006570   0.000200   0.003131   0.295709   0.001747  -0.002715
    35  H    0.000148  -0.002563  -0.000537   0.206972  -0.002375   0.005775
    36  H   -0.013141  -0.002485   0.000116  -0.000301  -0.019163   0.002010
    37  H   -0.017308   0.001774   0.000211   0.000130   0.236598  -0.000432
    38  H    0.003379   0.002276   0.002230  -0.000050   0.000104  -0.005440
    39  H   -0.000885   0.001004  -0.000582   0.002209  -0.000707   0.001073
              31         32         33         34         35         36
     1  Si  -0.000096  -0.007731   0.000532   0.000267  -0.003152  -0.005527
     2  O   -0.000001   0.000000   0.000001  -0.000017   0.000163  -0.000368
     3  O    0.000021   0.000208  -0.000014   0.000000  -0.000043  -0.000338
     4  O    0.000009   0.000044  -0.000001   0.000029  -0.000468  -0.000095
     5  O   -0.000043  -0.000065   0.000080  -0.000084   0.005562  -0.002230
     6  Ca   0.000054   0.000085   0.000047   0.000029  -0.000195  -0.000168
     7  O    0.000000  -0.000001   0.000000  -0.000000  -0.000001  -0.000007
     8  O    0.000000  -0.000002   0.000000   0.000003  -0.000009  -0.000122
     9  O   -0.000001  -0.000002   0.000000  -0.000005   0.000066  -0.000027
    10  O    0.000000   0.000001   0.000000   0.000000  -0.000012  -0.000011
    11  H   -0.000001  -0.000062   0.000004  -0.000003  -0.000002  -0.001188
    12  H    0.000000   0.000003  -0.000000   0.000006  -0.000012   0.000172
    13  H   -0.000001   0.000009   0.000001  -0.000004   0.000064   0.000133
    14  H   -0.000000  -0.000002  -0.000000   0.000000  -0.000002  -0.000006
    15  H    0.000001   0.000023  -0.000001   0.000002  -0.000048   0.000255
    16  H   -0.000001  -0.000003   0.000000   0.000003   0.000043  -0.000029
    17  H   -0.000001  -0.000054   0.000001   0.000006  -0.000088  -0.000020
    18  H    0.000000   0.000001  -0.000000  -0.000000   0.000002  -0.000003
    19  H   -0.000030   0.002416  -0.000159  -0.000029   0.000151   0.002449
    20  Si  -0.000897  -0.020319   0.005263   0.002729   0.025700  -0.022960
    21  O    0.005163  -0.011404   0.003388   0.000786  -0.011224  -0.031583
    22  O   -0.000439   0.013847  -0.000896  -0.000681   0.005728   0.015384
    23  O    0.000102  -0.014094   0.000524  -0.000234   0.010006   0.188444
    24  O   -0.000054   0.000203   0.000144  -0.001167   0.020446   0.014023
    25  Ca  -0.013760  -0.012890  -0.013536  -0.006570   0.000148  -0.013141
    26  O   -0.000583   0.287166   0.313768   0.000200  -0.002563  -0.002485
    27  O    0.313978  -0.012570  -0.000637   0.003131  -0.000537   0.000116
    28  O    0.009641  -0.000976  -0.000064   0.295709   0.206972  -0.000301
    29  O   -0.000310  -0.010537   0.004637   0.001747  -0.002375  -0.019163
    30  H   -0.012991   0.006442   0.002835  -0.002715   0.005775   0.002010
    31  H    0.416196   0.003338  -0.000075   0.001605  -0.007210   0.000208
    32  H    0.003338   0.467985  -0.018483  -0.000333   0.005591   0.009634
    33  H   -0.000075  -0.018483   0.414993  -0.000000  -0.000221  -0.002786
    34  H    0.001605  -0.000333  -0.000000   0.392026  -0.010002   0.001000
    35  H   -0.007210   0.005591  -0.000221  -0.010002   0.470917  -0.002050
    36  H    0.000208   0.009634  -0.002786   0.001000  -0.002050   0.475286
    37  H    0.000032  -0.002463   0.001327   0.000522  -0.000039  -0.006631
    38  H    0.000331  -0.013578   0.000706   0.000048  -0.000829  -0.004632
    39  H    0.001294  -0.004082   0.000173  -0.000497  -0.040678  -0.001719
              37         38         39
     1  Si   0.000613  -0.005830   0.019727
     2  O    0.000013   0.000118  -0.001745
     3  O    0.000009   0.005718   0.001883
     4  O    0.000001  -0.000183  -0.000720
     5  O    0.000042   0.022088   0.005300
     6  Ca   0.000064  -0.000063   0.001255
     7  O    0.000000   0.000026   0.000062
     8  O    0.000011  -0.000022  -0.000569
     9  O    0.000001   0.000004  -0.001111
    10  O    0.000000   0.000031  -0.000203
    11  H    0.000009   0.000087   0.001700
    12  H    0.000002   0.000004  -0.000018
    13  H    0.000003   0.000349  -0.001218
    14  H   -0.000000  -0.000039   0.000081
    15  H   -0.000008   0.000101  -0.000391
    16  H    0.000000   0.000019   0.000016
    17  H    0.000001  -0.000532   0.003361
    18  H    0.000000   0.000030  -0.000180
    19  H   -0.000035  -0.020781  -0.001523
    20  Si   0.001283   0.038166  -0.035208
    21  O    0.003044  -0.026513   0.034619
    22  O   -0.000497   0.218559  -0.030119
    23  O    0.004863  -0.005472  -0.016385
    24  O   -0.000192  -0.003275   0.220825
    25  Ca  -0.017308   0.003379  -0.000885
    26  O    0.001774   0.002276   0.001004
    27  O    0.000211   0.002230  -0.000582
    28  O    0.000130  -0.000050   0.002209
    29  O    0.236598   0.000104  -0.000707
    30  H   -0.000432  -0.005440   0.001073
    31  H    0.000032   0.000331   0.001294
    32  H   -0.002463  -0.013578  -0.004082
    33  H    0.001327   0.000706   0.000173
    34  H    0.000522   0.000048  -0.000497
    35  H   -0.000039  -0.000829  -0.040678
    36  H   -0.006631  -0.004632  -0.001719
    37  H    0.473042   0.000099   0.000564
    38  H    0.000099   0.465324  -0.000938
    39  H    0.000564  -0.000938   0.479051
 Mulliken charges:
               1
     1  Si   1.110829
     2  O   -1.182861
     3  O   -0.705076
     4  O   -0.951949
     5  O   -0.991320
     6  Ca   1.503037
     7  O   -0.593977
     8  O   -0.592644
     9  O   -0.643048
    10  O   -0.649882
    11  H    0.324970
    12  H    0.301807
    13  H    0.330929
    14  H    0.301411
    15  H    0.316210
    16  H    0.308730
    17  H    0.325750
    18  H    0.307457
    19  H    0.361907
    20  Si   1.152377
    21  O   -1.056465
    22  O   -0.775663
    23  O   -0.709945
    24  O   -0.690530
    25  Ca   1.441570
    26  O   -0.560398
    27  O   -0.539156
    28  O   -0.631245
    29  O   -1.079635
    30  H    0.308789
    31  H    0.284519
    32  H    0.332655
    33  H    0.288448
    34  H    0.322492
    35  H    0.324422
    36  H    0.408478
    37  H    0.303345
    38  H    0.328380
    39  H    0.365282
 Sum of Mulliken charges =  -1.00000
 Mulliken charges with hydrogens summed into heavy atoms:
               1
     1  Si   1.110829
     2  O   -1.182861
     3  O   -0.343169
     4  O   -0.951949
     5  O   -0.991320
     6  Ca   1.503037
     7  O    0.038363
     8  O    0.034133
     9  O   -0.018108
    10  O   -0.016675
    20  Si   1.152377
    21  O   -1.056465
    22  O   -0.447283
    23  O   -0.301467
    24  O   -0.325248
    25  Ca   1.441570
    26  O    0.060705
    27  O    0.054152
    28  O    0.015669
    29  O   -0.776290
 APT charges:
               1
     1  Si   0.676922
     2  O   -0.896940
     3  O   -0.716834
     4  O   -0.575455
     5  O   -1.005821
     6  Ca   1.456040
     7  O   -0.642567
     8  O   -0.543690
     9  O   -0.541071
    10  O   -0.691225
    11  H   -0.112219
    12  H    0.619069
    13  H   -0.183196
    14  H    0.768201
    15  H   -0.062212
    16  H    0.515506
    17  H   -0.135845
    18  H    0.685055
    19  H    0.555178
    20  Si   1.038283
    21  O   -0.333586
    22  O   -1.626283
    23  O   -1.375032
    24  O   -0.272590
    25  Ca   1.325144
    26  O    0.098932
    27  O    0.202064
    28  O   -0.136124
    29  O   -1.698387
    30  H   -0.729142
    31  H    0.445799
    32  H   -0.753675
    33  H    0.576974
    34  H    0.718515
    35  H   -0.602170
    36  H    1.004252
    37  H    0.847701
    38  H    1.147763
    39  H   -0.047336
 Sum of APT charges =  -1.00000
 APT charges with hydrogens summed into heavy atoms:
               1
     1  Si   0.676922
     2  O   -0.896940
     3  O   -0.161655
     4  O   -0.575455
     5  O   -1.005821
     6  Ca   1.456040
     7  O   -0.057562
     8  O   -0.036840
     9  O   -0.087777
    10  O   -0.142015
    20  Si   1.038283
    21  O   -0.333586
    22  O   -0.478520
    23  O   -0.370780
    24  O   -0.319926
    25  Ca   1.325144
    26  O   -0.077769
    27  O   -0.081279
    28  O   -0.019779
    29  O   -0.850685
 Electronic spatial extent (au):  <R**2>=          16287.9793
 Charge=             -1.0000 electrons
 Dipole moment (field-independent basis, Debye):
    X=              6.4469    Y=             13.6003    Z=              4.4111  Tot=             15.6840
 Quadrupole moment (field-independent basis, Debye-Ang):
   XX=            -95.4973   YY=           -171.3336   ZZ=           -140.1878
   XY=             15.1464   XZ=            -50.8747   YZ=             14.2204
 Traceless Quadrupole moment (field-independent basis, Debye-Ang):
   XX=             40.1756   YY=            -35.6607   ZZ=             -4.5149
   XY=             15.1464   XZ=            -50.8747   YZ=             14.2204
 Octapole moment (field-independent basis, Debye-Ang**2):
  XXX=            398.8423  YYY=            449.0681  ZZZ=           -126.7057  XYY=            441.2975
  XXY=            198.8325  XXZ=            143.2068  XZZ=            147.1118  YZZ=             88.2755
  YYZ=            -45.6876  XYZ=             16.8337
 Hexadecapole moment (field-independent basis, Debye-Ang**3):
 XXXX=          -8971.8841 YYYY=          -3898.3296 ZZZZ=          -1660.9734 XXXY=          -2036.4133
 XXXZ=           -941.5606 YYYX=          -2960.4355 YYYZ=            737.5997 ZZZX=            852.0073
 ZZZY=            542.2275 XXYY=          -3411.1920 XXZZ=          -1694.1806 YYZZ=           -913.9014
 XXYZ=            -22.3892 YYXZ=            514.8146 ZZXY=           -694.0179
 N-N= 2.841247085435D+03 E-N=-1.318788064355D+04  KE= 3.143402689073D+03
  Exact polarizability:   0.000   0.000   0.000   0.000   0.000   0.000
 Approx polarizability: 170.489   2.929 165.515  -5.996   1.694 165.810
 D2PCM: C-PCM CHGder 2nd derivatives, FixD1E=F FixD2E=F DoIter=F DoCFld=F I1PDM=0
 Calling FoFJK, ICntrl=    100147 FMM=F ISym2X=0 I1Cent= 0 IOpClX= 0 NMat=1 NMatS=1 NMatT=0.
 -------------------------------------------------------------------
 Center     Atomic                   Forces (Hartrees/Bohr)
 Number     Number              X              Y              Z
 -------------------------------------------------------------------
      1       14           0.000007153   -0.000016029    0.000003983
      2        8           0.000002062   -0.000000745   -0.000002698
      3        8           0.000018052   -0.000030891    0.000040050
      4        8          -0.000000730    0.000001525    0.000009248
      5        8          -0.000005214    0.000015991    0.000009207
      6       20          -0.000011424   -0.000014309   -0.000008363
      7        8           0.000008761   -0.000026020    0.000003630
      8        8          -0.000005878   -0.000014147   -0.000022380
      9        8          -0.000016241    0.000016369    0.000004177
     10        8           0.000005677    0.000001422    0.000016597
     11        1           0.000003173    0.000006076   -0.000005998
     12        1           0.000002277    0.000008031   -0.000025971
     13        1           0.000013511   -0.000012890    0.000002498
     14        1           0.000017710   -0.000019666    0.000001834
     15        1          -0.000000171    0.000011805    0.000003839
     16        1          -0.000008235    0.000020556   -0.000002206
     17        1           0.000002143   -0.000000612    0.000016329
     18        1           0.000008394   -0.000008194    0.000026141
     19        1          -0.000010193    0.000011917   -0.000008992
     20       14           0.000004290    0.000006072    0.000009688
     21        8          -0.000000209   -0.000004384   -0.000001143
     22        8           0.000009060   -0.000007133    0.000009692
     23        8           0.000008486   -0.000014518   -0.000021662
     24        8          -0.000010543    0.000016283    0.000001736
     25       20           0.000005928    0.000002043   -0.000009607
     26        8           0.000006758   -0.000015534   -0.000009162
     27        8          -0.000009197    0.000024657    0.000017294
     28        8           0.000001031    0.000027164   -0.000022167
     29        8           0.000009174    0.000001747   -0.000009050
     30        1          -0.000006080    0.000005783    0.000006917
     31        1          -0.000010261    0.000008794    0.000010054
     32        1           0.000007003   -0.000004115    0.000002465
     33        1          -0.000000457   -0.000014804   -0.000004348
     34        1          -0.000024723    0.000019722   -0.000009591
     35        1          -0.000014086    0.000015857   -0.000001544
     36        1          -0.000003370    0.000000500   -0.000009294
     37        1          -0.000010154   -0.000006263   -0.000044636
     38        1           0.000007831   -0.000010832    0.000019473
     39        1          -0.000001309   -0.000001229    0.000003960
 -------------------------------------------------------------------
 Cartesian Forces:  Max     0.000044636 RMS     0.000013037
 IRC-IRC-IRC-IRC-IRC-IRC-IRC-IRC-IRC-IRC-IRC-IRC-IRC-IRC-IRC-IRC-IRC-IRC
          ******** Start new reaction path calculation ********
 Supplied step size of   0.1000 bohr.
    Integration on MW PES will use step size of   0.3254 sqrt(amu)*bohr.
 Point Number:   0          Path Number:   1
 Calculating another point on the path.
 IRC-IRC-IRC-IRC-IRC-IRC-IRC-IRC-IRC-IRC-IRC-IRC-IRC-IRC-IRC-IRC-IRC-IRC
                          Input orientation:                          
 ---------------------------------------------------------------------
 Center     Atomic      Atomic             Coordinates (Angstroms)
 Number     Number       Type             X           Y           Z
 ---------------------------------------------------------------------
      1         14           0        2.010376    0.045825   -0.483553
      2          8           0        2.384858    1.486872   -1.205763
      3          8           0        1.903575   -1.105289   -1.735373
      4          8           0        3.309316   -0.346185    0.460471
      5          8           0        0.605029    0.046238    0.303045
      6         20           0        4.423861    2.578484   -0.715293
      7          8           0        3.827258    2.239766   -3.141724
      8          8           0        2.317189    3.920471   -0.532492
      9          8           0        4.057628    1.803877    1.541511
     10          8           0        5.390387    0.374778   -0.716822
     11          1           0        1.999385    2.990347   -0.733918
     12          1           0        1.922098    4.189872    0.298056
     13          1           0        3.105413    1.764543   -2.632435
     14          1           0        4.257221    1.594273   -3.704637
     15          1           0        3.684059    0.880690    1.256275
     16          1           0        3.420420    2.203937    2.134704
     17          1           0        4.563727   -0.081755   -0.267160
     18          1           0        5.592212   -0.108073   -1.519224
     19          1           0        1.054957   -1.562195   -1.623957
     20         14           0       -1.500366   -1.041775    0.104660
     21          8           0       -2.888701   -1.918899    0.219901
     22          8           0       -0.588235   -2.001320   -0.952515
     23          8           0       -1.973814    0.413783   -0.537662
     24          8           0       -1.042320   -1.027550    1.734765
     25         20           0       -4.881730   -1.128138    1.180664
     26          8           0       -5.053807   -2.356665   -1.056257
     27          8           0       -3.993875   -3.473567    1.928285
     28          8           0       -3.349088   -0.683465    3.027745
     29          8           0       -4.553059    0.768862    0.093521
     30          1           0       -3.320144   -3.073329    1.311598
     31          1           0       -3.618142   -3.403016    2.808237
     32          1           0       -4.079215   -2.261457   -0.866836
     33          1           0       -5.240390   -1.811014   -1.822189
     34          1           0       -3.367577    0.082064    3.604126
     35          1           0       -2.427322   -0.759728    2.678659
     36          1           0       -2.940110    0.581162   -0.369517
     37          1           0       -4.869683    1.669972    0.113111
     38          1           0       -1.137235   -2.732202   -1.244504
     39          1           0       -0.193715   -0.533937    1.680770
 ---------------------------------------------------------------------
                    Distance matrix (angstroms):
                    1          2          3          4          5
     1  Si   0.000000
     2  O    1.654824   0.000000
     3  O    1.703973   2.689130   0.000000
     4  O    1.652906   2.644061   2.715525   0.000000
     5  O    1.610508   2.742211   2.677197   2.737142   0.000000
     6  Ca   3.506134   2.364257   4.578492   3.343399   4.693907
     7  O    3.896192   2.528896   4.107040   4.464439   5.201996
     8  O    3.887083   2.525920   5.184232   4.491619   4.317325
     9  O    3.373851   3.232053   4.882741   2.520195   4.067374
    10  O    3.403983   3.241763   3.922487   2.497331   4.903847
    11  H    2.955168   1.622240   4.217384   3.778218   3.418670
    12  H    4.218037   3.127591   5.672206   4.746216   4.347919
    13  H    2.961553   1.622250   3.238067   3.750042   4.221557
    14  H    4.221538   3.124364   4.087210   4.691697   5.638833
    15  H    2.554451   2.849037   4.008016   1.509622   3.329472
    16  H    3.674363   3.570055   5.313125   3.052626   3.992126
    17  H    2.565678   2.844124   3.206194   1.474081   4.001600
    18  H    3.731735   3.595723   3.827166   3.031089   5.311917
    19  H    2.190678   3.352660   0.970221   3.302371   2.550064
    20  Si   3.722120   4.817284   3.869958   4.872729   2.378197
    21  O    5.325030   6.437563   5.239367   6.398963   4.009343
    22  O    3.341183   4.590305   2.761314   4.463956   2.681940
    23  O    4.001511   4.538271   4.333156   5.430036   2.737209
    24  O    3.923266   5.168614   4.552603   4.585283   2.432406
    25  Ca   7.186719   8.083107   7.385402   8.259744   5.679252
    26  O    7.483490   8.374298   7.101571   8.734090   6.296354
    27  O    7.365739   8.666975   7.335601   8.079084   6.015011
    28  O    6.448638   7.450576   7.103217   7.144159   4.857108
    29  O    6.628308   7.094953   6.967455   7.949524   5.212673
    30  H    6.431651   7.725256   6.359595   7.218828   5.114280
    31  H    7.376354   8.721193   7.510879   7.927541   6.000709
    32  H    6.523310   7.479912   6.155068   7.747284   5.351283
    33  H    7.603512   8.330693   7.179264   8.969601   6.491143
    34  H    6.755206   7.628828   7.596388   7.392352   5.165271
    35  H    5.508326   6.579743   6.193525   6.164446   3.935515
    36  H    4.980652   5.465793   5.307633   6.372140   3.647807
    37  H    7.094298   7.375724   7.549569   8.430989   5.713586
    38  H    4.266606   5.496110   3.483435   5.326521   3.626309
    39  H    3.142998   4.366323   4.049086   3.714244   1.694910
                    6          7          8          9         10
     6  Ca   0.000000
     7  O    2.521554   0.000000
     8  O    2.504478   3.451546   0.000000
     9  O    2.413981   4.709115   3.436653   0.000000
    10  O    2.406345   3.435360   4.695792   2.986409   0.000000
    11  H    2.459281   3.114807   1.003345   3.289628   4.282568
    12  H    3.143608   4.389151   0.958376   3.435061   5.254898
    13  H    2.465003   1.003131   3.111122   4.281365   3.289700
    14  H    3.151606   0.958332   4.386049   5.254126   3.420274
    15  H    2.704975   4.605430   3.782629   1.035947   2.657181
    16  H    3.044612   5.292211   3.358205   0.958102   3.918902
    17  H    2.701344   3.767621   4.597297   2.661397   1.045938
    18  H    3.037916   3.355579   5.284749   3.921555   0.957980
    19  H    5.414832   4.944105   5.730981   5.510595   4.834326
    20  Si   6.991071   7.049192   6.293137   6.407306   7.082651
    21  O    8.635659   8.584820   7.859111   7.991070   8.641858
    22  O    6.793525   6.502002   6.609502   6.502594   6.437803
    23  O    6.756311   6.615723   5.541624   6.529442   7.366484
    24  O    6.991809   7.626814   6.396066   5.836419   7.025420
    25  Ca  10.194495  10.289427   8.958113   9.414831  10.553464
    26  O   10.691031  10.215169   9.695790  10.347790  10.800796
    27  O   10.699258  10.932397  10.027799   9.634714  10.481924
    28  O    9.223307   9.904927   8.122697   7.953314   9.566613
    29  O    9.193150   9.102752   7.584513   8.792716   9.984191
    30  H    9.799025   9.957229   9.170247   8.847119   9.585264
    31  H   10.623908  11.075966  10.001104   9.361291  10.385151
    32  H    9.785209   9.378083   8.901798   9.409319   9.830850
    33  H   10.671957  10.018595   9.572369  10.527823  10.909306
    34  H    9.251811  10.095931   8.010090   7.896372   9.770272
    35  H    8.342738   9.055032   7.397712   7.065391   8.598428
    36  H    7.637861   7.498891   6.230308   7.356316   8.340287
    37  H    9.374519   9.303516   7.558616   9.041854  10.374746
    38  H    7.707739   7.277781   7.529812   7.438043   7.248560
    39  H    6.062202   6.864263   5.571797   4.853729   6.144625
                   11         12         13         14         15
    11  H    0.000000
    12  H    1.584237   0.000000
    13  H    2.516001   3.983747   0.000000
    14  H    3.983970   5.311450   1.582804   0.000000
    15  H    3.354050   3.869545   4.029652   5.044637   0.000000
    16  H    3.296480   3.092279   4.797699   5.930416   1.610008
    17  H    4.028837   5.054154   3.336169   3.836570   2.005235
    18  H    4.808879   5.936714   3.306070   3.075096   3.510283
    19  H    4.733894   6.126365   4.035912   4.954493   4.601695
    20  Si   5.404580   6.254662   6.048166   7.389810   5.648040
    21  O    6.993129   7.776052   7.591639   8.877419   7.218930
    22  O    5.626749   6.796805   5.535964   6.631810   5.606891
    23  O    4.739569   5.489572   5.657842   7.088659   5.953801
    24  O    5.611583   6.170364   6.638668   8.034064   5.119472
    25  Ca   8.244834   8.680570   9.311380  10.714388   8.798515
    26  O    8.856746   9.662016   9.275860  10.455576   9.600968
    27  O    9.208077   9.817570   9.931660  11.202383   8.852222
    28  O    7.500211   7.680236   8.926980  10.410043   7.419559
    29  O    6.968082   7.326172   8.189897   9.629555   8.319532
    30  H    8.321640   9.014569   8.958136  10.215947   8.043395
    31  H    9.218382   9.728680  10.075256  11.375929   8.607025
    32  H    8.034208   8.887766   8.422880   9.613320   8.639972
    33  H    8.755098   9.581613   9.115566  10.263732   9.816721
    34  H    7.488726   7.468925   9.144673  10.669692   7.475011
    35  H    6.730860   7.005945   8.074084   9.537867   6.485609
    36  H    5.507774   6.091757   6.562739   7.996936   6.827337
    37  H    7.045917   7.246543   8.434994   9.893498   8.665812
    38  H    6.545735   7.723608   6.336177   7.339672   6.523171
    39  H    4.802186   5.357512   5.896694   7.303610   4.149518
                   16         17         18         19         20
    16  H    0.000000
    17  H    3.507205   0.000000
    18  H    4.838724   1.620536   0.000000
    19  H    5.822946   4.042779   4.765723   0.000000
    20  Si   6.234570   6.150863   7.335766   3.128679   0.000000
    21  O    7.776199   7.690969   8.844746   4.368008   1.646238
    22  O    6.579090   5.540501   6.488718   1.828591   1.694204
    23  O    6.280443   6.561873   7.647257   3.775974   1.659934
    24  O    5.524356   6.027436   7.446535   3.995677   1.693296
    25  Ca   8.996589   9.612896  10.864317   6.580165   3.549488
    26  O   10.138731   9.914376  10.890740   6.186313   3.962777
    27  O    9.340688   9.463452  10.728697   6.462390   3.931515
    28  O    7.413559   8.592502  10.047529   6.465765   3.477152
    29  O    8.354774   9.163483  10.310018   6.311371   3.549291
    30  H    8.600131   8.578893   9.810014   5.481106   2.982533
    31  H    9.024020   9.350498  10.696457   6.698569   4.167705
    32  H    9.230034   8.933709   9.929712   5.236595   3.013618
    33  H   10.333754  10.076168  10.969825   6.303381   4.276944
    34  H    7.262125   8.827189  10.322920   7.042390   4.122591
    35  H    6.578396   7.616578   9.075229   5.593096   2.750321
    36  H    7.025729   7.533757   8.636977   4.704058   2.220727
    37  H    8.549724   9.602206  10.736722   6.968907   4.325036
    38  H    7.520421   6.362471   7.228207   2.513684   2.193092
    39  H    4.556752   5.160635   6.625577   3.679364   2.109350
                   21         22         23         24         25
    21  O    0.000000
    22  O    2.583311   0.000000
    23  O    2.617695   2.815076   0.000000
    24  O    2.549204   2.894114   2.847639   0.000000
    25  Ca   2.349582   4.873090   3.712969   3.880492   0.000000
    26  O    2.551059   4.480889   4.175006   5.064423   2.557871
    27  O    2.560660   4.697330   5.027229   3.838246   2.616919
    28  O    3.101974   5.020111   3.975859   2.666716   2.440990
    29  O    3.163877   4.948528   2.678988   4.271542   2.210999
    30  H    1.646407   3.706581   4.170410   3.090755   2.497892
    31  H    3.071510   5.028752   5.335430   3.664702   3.069319
    32  H    1.647928   3.501708   3.420231   4.184924   2.474005
    33  H    3.116442   4.736570   4.155749   5.557836   3.100337
    34  H    3.960576   5.729591   4.382582   3.183171   3.103291
    35  H    2.757180   4.255492   3.453624   1.697320   2.898937
    36  H    2.569116   3.541245   0.994995   3.258460   3.015735
    37  H    4.100693   5.739751   3.222975   4.955310   2.994868
    38  H    2.423547   0.959608   3.331173   3.433787   4.740856
    39  H    3.363809   3.040238   2.998060   0.983208   4.751912
                   26         27         28         29         30
    26  O    0.000000
    27  O    3.358336   0.000000
    28  O    4.731251   3.067447   0.000000
    29  O    3.367738   4.655884   3.488334   0.000000
    30  H    3.020916   0.997200   2.942354   4.215000   0.000000
    31  H    4.253269   0.959410   2.741629   5.064417   1.561225
    32  H    0.997384   3.047818   4.265080   3.213977   2.445588
[...]
    28  O   -0.000000   0.000001   0.000000   0.000000  -0.000038   0.000012
    29  O    0.000000  -0.000000   0.000000  -0.000000   0.000023   0.000000
    30  H   -0.000001  -0.000003   0.000002   0.000001  -0.000025   0.000004
    31  H    0.000000   0.000000  -0.000001   0.000000   0.000000   0.000000
    32  H   -0.000001  -0.000002  -0.000004   0.000001  -0.000064   0.000004
    33  H    0.000000   0.000000   0.000000   0.000000   0.000004  -0.000000
    34  H   -0.000000   0.000002  -0.000002   0.000000   0.000009   0.000005
    35  H   -0.000001  -0.000003   0.000045  -0.000012  -0.000083  -0.000005
    36  H   -0.000005  -0.000129  -0.000049  -0.000007  -0.001272   0.000163
    37  H   -0.000000   0.000011   0.000001   0.000000   0.000007   0.000003
    38  H    0.000027  -0.000018   0.000012   0.000032   0.000080   0.000006
    39  H    0.000042  -0.000392  -0.000924  -0.000082   0.001292   0.000034
              13         14         15         16         17         18
     1  Si   0.014635  -0.001627   0.017350   0.004405   0.081207   0.002919
     2  O   -0.043946   0.002934  -0.025799  -0.004697  -0.042777  -0.004557
     3  O   -0.011543  -0.000099   0.019645   0.000188  -0.030359  -0.000882
     4  O    0.019877  -0.000044  -0.016034  -0.004118  -0.053934  -0.002730
     5  O    0.001041   0.000324  -0.024629  -0.001079   0.015389   0.000098
     6  Ca  -0.018399  -0.015914  -0.015946  -0.014625  -0.006465  -0.015804
     7  O    0.272788   0.312144   0.004545  -0.000156  -0.013412  -0.000709
     8  O   -0.003355  -0.001137  -0.015380  -0.000289   0.003113  -0.000201
     9  O    0.003225  -0.000206   0.135579   0.308398  -0.006798  -0.003995
    10  O   -0.025053   0.001445  -0.004451  -0.004100   0.143471   0.304517
    11  H   -0.002962   0.004466   0.014782   0.001889  -0.003936   0.000205
    12  H    0.003000   0.000022   0.001628  -0.001397  -0.000132   0.000066
    13  H    0.469453  -0.012313  -0.003787  -0.000095   0.002963   0.004005
    14  H   -0.012313   0.405206  -0.000104   0.000093   0.003656  -0.002077
    15  H   -0.003787  -0.000104   0.593527  -0.006645  -0.000940   0.006778
    16  H   -0.000095   0.000093  -0.006645   0.406652   0.007730  -0.000033
    17  H    0.002963   0.003656  -0.000940   0.007730   0.593358  -0.003018
    18  H    0.004005  -0.002077   0.006778  -0.000033  -0.003018   0.405982
    19  H    0.000120   0.000296   0.000154  -0.000198   0.004859   0.000333
    20  Si   0.000015  -0.000524   0.001610  -0.001064  -0.014097  -0.000093
    21  O   -0.000247   0.000015  -0.000148  -0.000012   0.000276  -0.000008
    22  O    0.002338  -0.000206  -0.000319   0.000073  -0.002163   0.000188
    23  O   -0.000202   0.000002   0.000880  -0.000022  -0.000024   0.000017
    24  O    0.000069  -0.000007   0.000014   0.000019  -0.000123   0.000012
    25  Ca  -0.000084   0.000047   0.000103   0.000048   0.000300   0.000033
    26  O   -0.000000  -0.000000  -0.000001   0.000000   0.000001   0.000000
    27  O   -0.000001   0.000000   0.000003  -0.000000  -0.000001   0.000000
    28  O   -0.000002   0.000000   0.000036  -0.000017  -0.000003   0.000000
    29  O   -0.000008   0.000000   0.000003   0.000002   0.000004  -0.000000
    30  H    0.000029  -0.000002  -0.000009  -0.000002  -0.000060  -0.000001
    31  H   -0.000000  -0.000000   0.000003  -0.000000  -0.000002   0.000000
    32  H    0.000009  -0.000003   0.000045  -0.000004  -0.000064   0.000001
    33  H    0.000001  -0.000000  -0.000002   0.000000   0.000001  -0.000000
    34  H   -0.000003  -0.000000  -0.000003   0.000004   0.000005  -0.000000
    35  H    0.000065  -0.000002  -0.000041   0.000039  -0.000101   0.000002
    36  H    0.000117  -0.000011   0.000371  -0.000047  -0.000083  -0.000003
    37  H    0.000003  -0.000000  -0.000009   0.000001   0.000001  -0.000000
    38  H    0.000361  -0.000041   0.000069   0.000025  -0.000476   0.000028
    39  H   -0.000822   0.000055  -0.000530  -0.000084   0.002376  -0.000142
              19         20         21         22         23         24
     1  Si   0.005430  -0.197559   0.026918  -0.051499   0.040838   0.000198
     2  O    0.008724  -0.011234  -0.000434  -0.004653   0.000265   0.001622
     3  O    0.254593  -0.015867  -0.003080   0.013616  -0.004199  -0.002645
     4  O    0.003004   0.023037   0.000543  -0.005609  -0.000905  -0.002821
     5  O   -0.046863   0.147255  -0.041382   0.018926  -0.061061  -0.018587
     6  Ca   0.001655  -0.000927   0.000226  -0.000737  -0.001026   0.000091
     7  O   -0.000915   0.001085   0.000001   0.000009  -0.000021  -0.000001
     8  O    0.000411  -0.000908  -0.000000   0.000043  -0.000126  -0.000020
     9  O   -0.000424   0.000259   0.000004  -0.000052  -0.000203   0.000081
    10  O   -0.000285   0.002793  -0.000000   0.000002  -0.000016  -0.000041
    11  H   -0.000511  -0.001947   0.000168  -0.000885   0.000815  -0.000417
    12  H   -0.000064  -0.000457  -0.000032   0.000073  -0.000080  -0.000010
    13  H    0.000120   0.000015  -0.000247   0.002338  -0.000202   0.000069
    14  H    0.000296  -0.000524   0.000015  -0.000206   0.000002  -0.000007
    15  H    0.000154   0.001610  -0.000148  -0.000319   0.000880   0.000014
    16  H   -0.000198  -0.001064  -0.000012   0.000073  -0.000022   0.000019
    17  H    0.004859  -0.014097   0.000276  -0.002163  -0.000024  -0.000123
    18  H    0.000333  -0.000093  -0.000008   0.000188   0.000017   0.000012
    19  H    0.450165  -0.000097   0.004719  -0.014920  -0.002037  -0.001298
    20  Si  -0.000097  12.638615   0.069102   0.047935   0.165976  -0.005527
    21  O    0.004719   0.069102   9.289688  -0.049204  -0.011627  -0.037304
    22  O   -0.014920   0.047935  -0.049204   8.556733   0.017385   0.022100
    23  O   -0.002037   0.165976  -0.011627   0.017385   8.470376  -0.000703
    24  O   -0.001298  -0.005527  -0.037304   0.022100  -0.000703   8.476200
    25  Ca  -0.000545   0.030401   0.016877   0.010984  -0.008636  -0.001097
    26  O   -0.000194   0.001722  -0.055021  -0.006357   0.002465   0.000780
    27  O   -0.000318  -0.004382  -0.077590  -0.001742   0.000608  -0.001578
    28  O   -0.000034  -0.002884  -0.018072  -0.001052  -0.008140  -0.009823
    29  O   -0.000107   0.002364  -0.007762  -0.002625  -0.020819  -0.002362
    30  H    0.000295  -0.003782   0.015620  -0.002520   0.000159   0.009617
    31  H   -0.000026  -0.002078   0.005951  -0.000287   0.000008   0.000119
    32  H    0.002258  -0.005481  -0.016620   0.012791  -0.017626  -0.002174
    33  H   -0.000136   0.005219   0.003150  -0.000770   0.000842   0.000157
    34  H   -0.000029   0.002500   0.000707  -0.000528  -0.000498  -0.000147
    35  H    0.000219   0.029251  -0.011591   0.003144   0.011379   0.014930
    36  H    0.002486  -0.013390  -0.023942   0.006569   0.173640   0.008249
    37  H   -0.000024   0.001265   0.002768  -0.000291   0.005321  -0.000148
    38  H   -0.022736   0.025164  -0.031334   0.217862  -0.005904  -0.004007
    39  H   -0.001210  -0.027510   0.030992  -0.022840  -0.015473   0.232782
              25         26         27         28         29         30
     1  Si  -0.000618   0.001328   0.000336   0.001157   0.000582  -0.000824
     2  O   -0.000020  -0.000000  -0.000001  -0.000017  -0.000008   0.000049
     3  O    0.000067   0.000015   0.000011   0.000000  -0.000043  -0.000157
     4  O    0.000025  -0.000000   0.000001   0.000030   0.000004  -0.000095
     5  O    0.001399  -0.000195   0.000650  -0.002260  -0.001725   0.002116
     6  Ca  -0.000196  -0.000006   0.000049   0.000027  -0.000050   0.000045
     7  O    0.000017   0.000000   0.000000  -0.000000   0.000000  -0.000001
     8  O    0.000014   0.000000  -0.000000   0.000001  -0.000000  -0.000003
     9  O    0.000002   0.000000  -0.000000   0.000000   0.000000   0.000002
    10  O   -0.000075   0.000000   0.000000   0.000000  -0.000000   0.000001
    11  H    0.000127   0.000004   0.000000  -0.000038   0.000023  -0.000025
    12  H   -0.000041  -0.000000  -0.000000   0.000012   0.000000   0.000004
    13  H   -0.000084  -0.000000  -0.000001  -0.000002  -0.000008   0.000029
    14  H    0.000047  -0.000000   0.000000   0.000000   0.000000  -0.000002
    15  H    0.000103  -0.000001   0.000003   0.000036   0.000003  -0.000009
    16  H    0.000048   0.000000  -0.000000  -0.000017   0.000002  -0.000002
    17  H    0.000300   0.000001  -0.000001  -0.000003   0.000004  -0.000060
    18  H    0.000033   0.000000   0.000000   0.000000  -0.000000  -0.000001
    19  H   -0.000545  -0.000194  -0.000318  -0.000034  -0.000107   0.000295
    20  Si   0.030401   0.001722  -0.004382  -0.002884   0.002364  -0.003782
    21  O    0.016877  -0.055021  -0.077590  -0.018072  -0.007762   0.015620
    22  O    0.010984  -0.006357  -0.001742  -0.001052  -0.002625  -0.002520
    23  O   -0.008636   0.002465   0.000608  -0.008140  -0.020819   0.000159
    24  O   -0.001097   0.000780  -0.001578  -0.009823  -0.002362   0.009617
    25  Ca  18.498013   0.027670   0.032651   0.016155   0.044258  -0.022827
    26  O    0.027670   7.993975   0.004165  -0.001766   0.014153  -0.013300
    27  O    0.032651   0.004165   7.988439   0.005569  -0.003251   0.292944
    28  O    0.016155  -0.001766   0.005569   8.153668  -0.001394  -0.007558
    29  O    0.044258   0.014153  -0.003251  -0.001394   8.868061   0.003157
    30  H   -0.022827  -0.013300   0.292944  -0.007558   0.003157   0.424557
    31  H   -0.013558  -0.000695   0.312046   0.010158  -0.000374  -0.012434
    32  H   -0.012731   0.283237  -0.012328  -0.000846  -0.010323   0.005072
    33  H   -0.013401   0.311912  -0.000721  -0.000081   0.005240   0.003030
    34  H   -0.006345   0.000166   0.003164   0.294164   0.001539  -0.002813
    35  H    0.002031  -0.002621  -0.001305   0.206931  -0.002457   0.008393
    36  H   -0.017027  -0.003326   0.000106   0.001057  -0.026241   0.000883
    37  H   -0.017295   0.001720   0.000254   0.000034   0.228816  -0.000509
    38  H    0.003480   0.001890   0.002297  -0.000047   0.000082  -0.005635
    39  H   -0.001395   0.000975  -0.000378   0.005238  -0.000643   0.000715
              31         32         33         34         35         36
     1  Si  -0.000152  -0.010511   0.000709   0.000291  -0.005030  -0.006336
     2  O   -0.000003  -0.000009   0.000002  -0.000020   0.000225  -0.000537
     3  O    0.000018   0.000322  -0.000021  -0.000002  -0.000020  -0.000424
     4  O    0.000013   0.000074  -0.000002   0.000035  -0.000584   0.000030
     5  O   -0.000227   0.001601   0.000026  -0.000473   0.009671  -0.000256
     6  Ca   0.000049   0.000061   0.000047   0.000030  -0.000156  -0.000088
     7  O    0.000000  -0.000001   0.000000  -0.000000  -0.000001  -0.000005
     8  O    0.000000  -0.000002   0.000000   0.000002  -0.000003  -0.000129
     9  O   -0.000001  -0.000004   0.000000  -0.000002   0.000045  -0.000049
    10  O    0.000000   0.000001   0.000000   0.000000  -0.000012  -0.000007
    11  H    0.000000  -0.000064   0.000004   0.000009  -0.000083  -0.001272
    12  H    0.000000   0.000004  -0.000000   0.000005  -0.000005   0.000163
    13  H   -0.000000   0.000009   0.000001  -0.000003   0.000065   0.000117
    14  H   -0.000000  -0.000003  -0.000000  -0.000000  -0.000002  -0.000011
    15  H    0.000003   0.000045  -0.000002  -0.000003  -0.000041   0.000371
    16  H   -0.000000  -0.000004   0.000000   0.000004   0.000039  -0.000047
    17  H   -0.000002  -0.000064   0.000001   0.000005  -0.000101  -0.000083
    18  H    0.000000   0.000001  -0.000000  -0.000000   0.000002  -0.000003
    19  H   -0.000026   0.002258  -0.000136  -0.000029   0.000219   0.002486
    20  Si  -0.002078  -0.005481   0.005219   0.002500   0.029251  -0.013390
    21  O    0.005951  -0.016620   0.003150   0.000707  -0.011591  -0.023942
    22  O   -0.000287   0.012791  -0.000770  -0.000528   0.003144   0.006569
    23  O    0.000008  -0.017626   0.000842  -0.000498   0.011379   0.173640
    24  O    0.000119  -0.002174   0.000157  -0.000147   0.014930   0.008249
    25  Ca  -0.013558  -0.012731  -0.013401  -0.006345   0.002031  -0.017027
    26  O   -0.000695   0.283237   0.311912   0.000166  -0.002621  -0.003326
    27  O    0.312046  -0.012328  -0.000721   0.003164  -0.001305   0.000106
    28  O    0.010158  -0.000846  -0.000081   0.294164   0.206931   0.001057
    29  O   -0.000374  -0.010323   0.005240   0.001539  -0.002457  -0.026241
    30  H   -0.012434   0.005072   0.003030  -0.002813   0.008393   0.000883
    31  H    0.417782   0.003571  -0.000096   0.001569  -0.007986   0.000405
    32  H    0.003571   0.468254  -0.017753  -0.000358   0.005482   0.010826
    33  H   -0.000096  -0.017753   0.415577   0.000001  -0.000257  -0.003396
    34  H    0.001569  -0.000358   0.000001   0.394976  -0.009565   0.001192
    35  H   -0.007986   0.005482  -0.000257  -0.009565   0.466121  -0.004737
    36  H    0.000405   0.010826  -0.003396   0.001192  -0.004737   0.488765
    37  H    0.000027  -0.002146   0.001348   0.000515  -0.000124  -0.006085
    38  H    0.000302  -0.013492   0.000740   0.000034  -0.000457  -0.004670
    39  H    0.001462  -0.003490   0.000151  -0.000588  -0.042823  -0.000004
              37         38         39
     1  Si   0.000758  -0.004821   0.022902
     2  O    0.000011   0.000204  -0.001151
     3  O    0.000007   0.006428   0.001703
     4  O   -0.000000  -0.000379   0.000955
     5  O   -0.000106   0.026658  -0.005311
     6  Ca   0.000068  -0.000086   0.000941
     7  O   -0.000000   0.000027   0.000042
     8  O    0.000011  -0.000018  -0.000392
     9  O    0.000001   0.000012  -0.000924
    10  O    0.000000   0.000032  -0.000082
    11  H    0.000007   0.000080   0.001292
    12  H    0.000003   0.000006   0.000034
    13  H    0.000003   0.000361  -0.000822
    14  H   -0.000000  -0.000041   0.000055
    15  H   -0.000009   0.000069  -0.000530
    16  H    0.000001   0.000025  -0.000084
    17  H    0.000001  -0.000476   0.002376
    18  H   -0.000000   0.000028  -0.000142
    19  H   -0.000024  -0.022736  -0.001210
    20  Si   0.001265   0.025164  -0.027510
    21  O    0.002768  -0.031334   0.030992
    22  O   -0.000291   0.217862  -0.022840
    23  O    0.005321  -0.005904  -0.015473
    24  O   -0.000148  -0.004007   0.232782
    25  Ca  -0.017295   0.003480  -0.001395
    26  O    0.001720   0.001890   0.000975
    27  O    0.000254   0.002297  -0.000378
    28  O    0.000034  -0.000047   0.005238
    29  O    0.228816   0.000082  -0.000643
    30  H   -0.000509  -0.005635   0.000715
    31  H    0.000027   0.000302   0.001462
    32  H   -0.002146  -0.013492  -0.003490
    33  H    0.001348   0.000740   0.000151
    34  H    0.000515   0.000034  -0.000588
    35  H   -0.000124  -0.000457  -0.042823
    36  H   -0.006085  -0.004670  -0.000004
    37  H    0.480072   0.000100   0.000420
    38  H    0.000100   0.484164  -0.000905
    39  H    0.000420  -0.000905   0.484669
 Mulliken charges:
               1
     1  Si   1.133641
     2  O   -1.183195
     3  O   -0.710012
     4  O   -0.943114
     5  O   -0.929741
     6  Ca   1.504207
     7  O   -0.587137
     8  O   -0.593249
     9  O   -0.645959
    10  O   -0.627757
    11  H    0.327044
    12  H    0.302449
    13  H    0.328709
    14  H    0.303614
    15  H    0.317655
    16  H    0.309119
    17  H    0.320257
    18  H    0.309071
    19  H    0.353251
    20  Si   1.114239
    21  O   -1.082316
    22  O   -0.761511
    23  O   -0.731630
    24  O   -0.676202
    25  Ca   1.431190
    26  O   -0.562693
    27  O   -0.539697
    28  O   -0.640204
    29  O   -1.088097
    30  H    0.305868
    31  H    0.284437
    32  H    0.332423
    33  H    0.288475
    34  H    0.320465
    35  H    0.332033
    36  H    0.417205
    37  H    0.303205
    38  H    0.324964
    39  H    0.338991
 Sum of Mulliken charges =  -1.00000
 Mulliken charges with hydrogens summed into heavy atoms:
               1
     1  Si   1.133641
     2  O   -1.183195
     3  O   -0.356761
     4  O   -0.943114
     5  O   -0.929741
     6  Ca   1.504207
     7  O    0.045185
     8  O    0.036244
     9  O   -0.019184
    10  O    0.001571
    20  Si   1.114239
    21  O   -1.082316
    22  O   -0.436546
    23  O   -0.314425
    24  O   -0.337211
    25  Ca   1.431190
    26  O    0.058205
    27  O    0.050607
    28  O    0.012294
    29  O   -0.784892
 APT charges:
               1
     1  Si   0.756820
     2  O   -0.728563
     3  O   -0.371033
     4  O   -0.572430
     5  O   -1.283229
     6  Ca   1.384493
     7  O   -0.564011
     8  O   -0.269672
     9  O   -0.181114
    10  O   -0.536037
    11  H   -0.207670
    12  H    0.470573
    13  H   -0.424754
    14  H    0.919629
    15  H   -0.109619
    16  H    0.300072
    17  H   -0.355537
    18  H    0.785642
    19  H    0.201537
    20  Si   0.859804
    21  O   -0.697089
    22  O   -1.117368
    23  O   -1.055739
    24  O   -0.514344
    25  Ca   1.370874
    26  O   -0.230263
    27  O   -0.133665
    28  O   -0.437224
    29  O   -1.672358
    30  H   -0.443030
    31  H    0.508243
    32  H   -0.452491
    33  H    0.626269
    34  H    0.732289
    35  H   -0.317023
    36  H    0.787144
    37  H    0.836534
    38  H    0.876239
    39  H    0.258104
 Sum of APT charges =  -1.00000
 APT charges with hydrogens summed into heavy atoms:
               1
     1  Si   0.756820
     2  O   -0.728563
     3  O   -0.169497
     4  O   -0.572430
     5  O   -1.283229
     6  Ca   1.384493
     7  O   -0.069136
     8  O   -0.006768
     9  O    0.009338
    10  O   -0.105931
    20  Si   0.859804
    21  O   -0.697089
    22  O   -0.241130
    23  O   -0.268595
    24  O   -0.256240
    25  Ca   1.370874
    26  O   -0.056485
    27  O   -0.068452
    28  O   -0.021958
    29  O   -0.835824
 Electronic spatial extent (au):  <R**2>=          13255.9189
 Charge=             -1.0000 electrons
 Dipole moment (field-independent basis, Debye):
    X=              0.3328    Y=             11.7114    Z=              6.4905  Tot=             13.3939
 Quadrupole moment (field-independent basis, Debye-Ang):
   XX=            -87.9357   YY=           -157.9138   ZZ=           -144.7560
   XY=             38.3472   XZ=            -41.3494   YZ=             11.6531
 Traceless Quadrupole moment (field-independent basis, Debye-Ang):
   XX=             42.2662   YY=            -27.7119   ZZ=            -14.5542
   XY=             38.3472   XZ=            -41.3494   YZ=             11.6531
 Octapole moment (field-independent basis, Debye-Ang**2):
  XXX=            -32.5777  YYY=            163.0045  ZZZ=             55.0187  XYY=            187.5809
  XXY=            246.7734  XXZ=              1.8616  XZZ=            -58.4653  YZZ=             -4.5221
  YYZ=             41.2727  XYZ=             -1.1085
 Hexadecapole moment (field-independent basis, Debye-Ang**3):
 XXXX=          -7704.7869 YYYY=          -3163.2810 ZZZZ=          -1604.1179 XXXY=           -752.0248
 XXXZ=           -585.4830 YYYX=          -1837.7876 YYYZ=            594.3952 ZZZX=            736.8392
 ZZZY=            461.9784 XXYY=          -2021.7288 XXZZ=          -1600.0713 YYZZ=           -860.8605
 XXYZ=            -43.5329 YYXZ=            385.5733 ZZXY=           -592.8208
 N-N= 2.847489349083D+03 E-N=-1.320034384445D+04  KE= 3.143280021937D+03
  Exact polarizability:   0.000   0.000   0.000   0.000   0.000   0.000
 Approx polarizability: 171.040   3.198 165.619  -5.412   1.776 165.611

 This type of calculation cannot be archived.


 THE PROBLEM WITH THE LADDER OF SUCCESS IS YOU CAN'T
 CLIMB IT WHILE YOU'RE TWIDDLING YOUR THUMBS.
 Job cpu time:       3 days 15 hours 19 minutes 29.6 seconds.
 Elapsed time:       0 days  5 hours 28 minutes 27.8 seconds.
 File lengths (MBytes):  RWF=   1744 Int=      0 D2E=      0 Chk=     52 Scr=      1
 Normal termination of Gaussian 16 at Mon Apr 25 05:56:47 2022.
