 Entering Gaussian System, Link 0=g16
 Initial command:
 /home/apps/g16/l1.exe "./Gau-51890.inp" -scrdir="./"
 Entering Link 1 = /home/apps/g16/l1.exe PID=     51891.
  
 Copyright (c) 1988-2017, Gaussian, Inc.  All Rights Reserved.
  
 This is part of the Gaussian(R) 16 program.  It is based on
 the Gaussian(R) 09 system (copyright 2009, Gaussian, Inc.),
 the Gaussian(R) 03 system (copyright 2003, Gaussian, Inc.),
 the Gaussian(R) 98 system (copyright 1998, Gaussian, Inc.),
 the Gaussian(R) 94 system (copyright 1995, Gaussian, Inc.),
 the Gaussian 92(TM) system (copyright 1992, Gaussian, Inc.),
 the Gaussian 90(TM) system (copyright 1990, Gaussian, Inc.),
 the Gaussian 88(TM) system (copyright 1988, Gaussian, Inc.),
 the Gaussian 86(TM) system (copyright 1986, Carnegie Mellon
 University), and the Gaussian 82(TM) system (copyright 1983,
 Carnegie Mellon University). Gaussian is a federally registered
 trademark of Gaussian, Inc.
  
 This software contains proprietary and confidential information,
 including trade secrets, belonging to Gaussian, Inc.
  
 This software is provided under written license and may be
 used, copied, transmitted, or stored only in accord with that
 written license.
  
 The following legend is applicable only to US Government
 contracts under FAR:
  
                    RESTRICTED RIGHTS LEGEND
  
 Use, reproduction and disclosure by the US Government is
 subject to restrictions as set forth in subparagraphs (a)
 and (c) of the Commercial Computer Software - Restricted
 Rights clause in FAR 52.227-19.
  
 Gaussian, Inc.
 340 Quinnipiac St., Bldg. 40, Wallingford CT 06492
  
  
 ---------------------------------------------------------------
 Warning -- This program may not be used in any manner that
 competes with the business of Gaussian, Inc. or will provide
 assistance to any competitor of Gaussian, Inc.  The licensee
 of this program is prohibited from giving any competitor of
 Gaussian, Inc. access to this program.  By using this program,
 the user acknowledges that Gaussian, Inc. is engaged in the
 business of creating and licensing software in the field of
 computational chemistry and represents and warrants to the
 licensee that it is not a competitor of Gaussian, Inc. and that
 it will not use this program in any manner prohibited above.
 ---------------------------------------------------------------
  

 Cite this work as:
 Gaussian 16, Revision B.01,
 M. J. Frisch, G. W. Trucks, H. B. Schlegel, G. E. Scuseria, 
 M. A. Robb, J. R. Cheeseman, G. Scalmani, V. Barone, 
 G. A. Petersson, H. Nakatsuji, X. Li, M. Caricato, A. V. Marenich, 
 J. Bloino, B. G. Janesko, R. Gomperts, B. Mennucci, H. P. Hratchian, 
 J. V. Ortiz, A. F. Izmaylov, J. L. Sonnenberg, D. Williams-Young, 
 F. Ding, F. Lipparini, F. Egidi, J. Goings, B. Peng, A. Petrone, 
 T. Henderson, D. Ranasinghe, V. G. Zakrzewski, J. Gao, N. Rega, 
 G. Zheng, W. Liang, M. Hada, M. Ehara, K. Toyota, R. Fukuda, 
 J. Hasegawa, M. Ishida, T. Nakajima, Y. Honda, O. Kitao, H. Nakai, 
 T. Vreven, K. Throssell, J. A. Montgomery, Jr., J. E. Peralta, 
 F. Ogliaro, M. J. Bearpark, J. J. Heyd, E. N. Brothers, K. N. Kudin, 
 V. N. Staroverov, T. A. Keith, R. Kobayashi, J. Normand, 
 K. Raghavachari, A. P. Rendell, J. C. Burant, S. S. Iyengar, 
 J. Tomasi, M. Cossi, J. M. Millam, M. Klene, C. Adamo, R. Cammi, 
 J. W. Ochterski, R. L. Martin, K. Morokuma, O. Farkas, 
 J. B. Foresman, and D. J. Fox, Gaussian, Inc., Wallingford CT, 2016.
 
 ******************************************
 Gaussian 16:  EM64L-G16RevB.01 20-Dec-2017
                 7-May-2022 
 ******************************************
 %nprocshared=16
 Will use up to   16 processors via shared memory.
 %mem=2000MW
 %chk=c2sdimerts2nbo.chk
 ----------------------------------------------------------------------
 # wb97xd/6-311++g(d,p) scrf=(cpcm,solvent=water) nosymm pop=(savenbos,
 nboread) scf=xqc
 ----------------------------------------------------------------------
 1/38=1,172=1/1;
 2/12=2,15=1,17=6,18=5,40=1/2;
 3/5=4,6=6,7=1111,11=2,25=1,30=1,70=2101,72=1,74=-58/1,2,3;
 4//1;
 5/5=2,8=3,13=1,38=5,53=1/2,8;
 6/7=2,8=2,9=2,10=2,28=1,40=2,73=1/1,7;
 99/5=1,9=1/99;
 --------------
 c2sdimerts2nbo
 --------------
 Symbolic Z-matrix:
 Charge = -1 Multiplicity = 1
 Si                   -2.05318  -0.18464   0. 
 O                    -3.72103  -0.05548  -0.20891 
 O                    -1.80822  -0.2511   -1.73225 
 O                    -1.82079   1.37421   0.68157 
 O                    -2.19866  -1.57986   0.9916 
 Ca                   -5.03889   1.64667  -1.02909 
 O                    -5.30914  -0.828    -2.02287 
 O                    -5.79781   0.44058   1.11565 
 O                    -3.92177   3.07869   0.21296 
 O                    -3.47452   1.4309   -2.87 
 H                    -4.88625   0.09614   0.83228 
 H                    -5.65945   0.96209   1.90808 
 H                    -4.56241  -0.7604   -1.34323 
 H                    -4.8796   -0.81569  -2.88046 
 H                    -2.59886   1.96929   0.56894 
 H                    -3.70859   4.00378   0.31577 
 H                    -2.78872   0.80136  -2.5104 
 H                    -3.00234   2.13995  -3.30853 
 H                    -1.3103   -1.85573   1.22591 
 H                    -0.87674  -0.19887  -1.98271 
 Si                    1.04766   0.41509  -0.29138 
 O                     2.48619  -0.08978   0.22755 
 O                     0.75846   2.00715   0.12433 
 O                     1.07902   0.40565  -1.98938 
 O                    -0.22871  -0.45976   0.1937 
 Ca                    4.24859  -0.6784   -1.30366 
 O                     4.85093   0.82838   0.64379 
 O                     3.76925  -2.30356   0.54975 
 O                     2.71088  -1.49593  -2.67115 
 O                     3.59467   1.44792  -2.40896 
 H                     3.04392  -1.64262   0.67475 
 H                     3.35263  -3.1497    0.37766 
 H                     3.87006   0.75644   0.74773 
 H                     5.06969   1.76059   0.6069 
 H                     1.56392  -0.40091  -2.34381 
 H                     2.5602   -2.16928  -3.33064 
 H                     2.62209   1.33074  -2.39507 
 H                     3.76621   2.31488  -2.03592 
 H                    -0.18406   2.048     0.38935 
 
                          Input orientation:                          
 ---------------------------------------------------------------------
 Center     Atomic      Atomic             Coordinates (Angstroms)
 Number     Number       Type             X           Y           Z
 ---------------------------------------------------------------------
      1         14           0       -2.053176   -0.184638    0.000000
      2          8           0       -3.721035   -0.055480   -0.208910
      3          8           0       -1.808219   -0.251103   -1.732245
      4          8           0       -1.820794    1.374210    0.681572
      5          8           0       -2.198664   -1.579864    0.991601
      6         20           0       -5.038890    1.646674   -1.029093
      7          8           0       -5.309144   -0.827998   -2.022872
      8          8           0       -5.797809    0.440582    1.115654
      9          8           0       -3.921770    3.078695    0.212955
     10          8           0       -3.474518    1.430900   -2.869998
     11          1           0       -4.886250    0.096140    0.832280
     12          1           0       -5.659454    0.962086    1.908075
     13          1           0       -4.562407   -0.760398   -1.343229
     14          1           0       -4.879603   -0.815689   -2.880460
     15          1           0       -2.598859    1.969290    0.568936
     16          1           0       -3.708587    4.003782    0.315766
     17          1           0       -2.788716    0.801357   -2.510396
     18          1           0       -3.002340    2.139951   -3.308531
     19          1           0       -1.310297   -1.855725    1.225908
     20          1           0       -0.876742   -0.198865   -1.982714
     21         14           0        1.047663    0.415095   -0.291377
     22          8           0        2.486187   -0.089783    0.227551
     23          8           0        0.758461    2.007146    0.124328
     24          8           0        1.079019    0.405649   -1.989378
     25          8           0       -0.228706   -0.459756    0.193695
     26         20           0        4.248585   -0.678404   -1.303662
     27          8           0        4.850929    0.828380    0.643790
     28          8           0        3.769250   -2.303557    0.549745
     29          8           0        2.710876   -1.495934   -2.671149
     30          8           0        3.594674    1.447923   -2.408961
     31          1           0        3.043916   -1.642620    0.674747
     32          1           0        3.352626   -3.149699    0.377661
     33          1           0        3.870063    0.756439    0.747728
     34          1           0        5.069690    1.760590    0.606895
     35          1           0        1.563924   -0.400908   -2.343806
     36          1           0        2.560195   -2.169275   -3.330642
     37          1           0        2.622085    1.330737   -2.395067
     38          1           0        3.766212    2.314879   -2.035923
     39          1           0       -0.184058    2.047999    0.389354
 ---------------------------------------------------------------------
                    Distance matrix (angstroms):
                    1          2          3          4          5
     1  Si   0.000000
     2  O    1.685847   0.000000
     3  O    1.750741   2.453097   0.000000
     4  O    1.717134   2.539269   2.910037   0.000000
     5  O    1.717875   2.466290   3.055714   2.994237   0.000000
     6  Ca   3.650647   2.303643   3.812245   3.654689   4.749804
     7  O    3.886805   2.531666   3.560021   4.932780   4.396298
     8  O    3.957001   2.512675   4.950332   4.108131   4.129338
     9  O    3.766475   3.168804   4.397551   2.745719   5.027679
    10  O    3.587069   3.058020   2.626817   3.918120   5.060084
    11  H    2.966114   1.569965   4.021398   3.324635   3.171355
    12  H    4.238038   3.045412   5.436522   4.050860   4.390729
    13  H    2.903791   1.578447   2.827767   4.021544   3.422022
    14  H    4.084601   3.009548   3.327244   5.180738   4.771190
    15  H    2.293657   2.442134   3.294039   0.985998   3.596567
    16  H    4.514749   4.093049   5.090166   3.257641   5.823549
    17  H    2.795585   2.626828   1.635410   3.384331   4.275787
    18  H    4.153433   3.865759   3.102860   4.231233   5.742304
    19  H    2.201647   3.333353   3.401971   3.315025   0.959268
    20  H    2.305505   3.355137   0.965978   3.234845   3.535702
    21  Si   3.171716   4.792569   3.267412   3.177196   4.020514
    22  O    4.546053   6.222643   4.723214   4.571597   4.975132
    23  O    3.567167   4.942809   3.890295   2.713611   4.728995
    24  O    3.757221   5.140353   2.972135   4.059680   4.855070
    25  O    1.855235   3.538629   2.499528   2.477135   2.402505
    26  Ca   6.454110   8.068541   6.086965   6.707588   6.902745
    27  O    7.007663   8.659496   7.152278   6.694120   7.457706
    28  O    6.220344   7.857085   6.366177   6.692678   6.027849
    29  O    5.617003   7.036122   4.780519   6.325701   6.125877
    30  O    6.353468   7.785887   5.704024   6.235713   7.368452
    31  H    5.344281   7.004600   5.592240   5.724222   5.252521
    32  H    6.177128   7.743057   6.283939   6.879127   5.801562
    33  H    6.043963   7.694098   6.277603   5.724672   6.507475
    34  H    7.408607   9.013351   7.538177   6.901713   8.008471
    35  H    4.315508   5.710332   3.430422   4.874451   5.164489
    36  H    6.026205   7.325789   5.031630   6.917168   6.455690
    37  H    5.467245   6.850989   4.750699   5.404329   6.571205
    38  H    6.652657   8.063216   6.144165   6.283651   7.740457
    39  H    2.937663   4.158455   3.524904   1.793959   4.193176
                    6          7          8          9         10
     6  Ca   0.000000
     7  O    2.680417   0.000000
     8  O    2.574987   3.420297   0.000000
     9  O    2.200301   4.710199   3.360659   0.000000
    10  O    2.425438   3.030857   4.718457   3.524182   0.000000
    11  H    2.427378   3.030637   1.014830   3.195218   4.181080
    12  H    3.079077   4.333528   0.958666   3.220716   5.274819
    13  H    2.473805   1.011979   3.002445   4.191749   2.883802
    14  H    3.084828   0.959226   4.288385   5.064868   2.649818
    15  H    2.934541   4.678454   3.587357   1.762837   3.589277
    16  H    3.022302   5.601527   4.207263   0.954884   4.101658
    17  H    2.823491   3.040565   4.725784   3.726489   0.997979
    18  H    3.096239   3.972781   5.502355   3.758651   0.958132
    19  H    5.590549   5.253720   5.042117   5.674008   5.679983
    20  H    4.651761   4.477009   5.850272   4.983529   3.192467
    21  Si   6.253570   6.704651   6.988625   5.660776   5.303892
    22  O    7.824399   8.147181   8.348329   7.148523   6.887473
    23  O    5.921959   7.033089   6.813334   4.802149   5.216911
    24  O    6.315940   6.506276   7.545410   6.083037   4.749877
    25  O    5.391672   5.555144   5.716251   5.114658   4.847277
    26  Ca   9.578025   9.585918  10.394001   9.119793   8.157750
    27  O   10.063631  10.633991  10.666239   9.066961   9.056644
    28  O    9.781635   9.550543   9.968910   9.393288   8.838155
    29  O    8.522394   8.073854   9.512502   8.557878   6.845801
    30  O    8.745397   9.198199  10.082479   8.125933   7.084230
    31  H    8.891247   8.815575   9.094517   8.427624   8.031297
    32  H    9.767379   9.283271   9.857242   9.577936   8.839631
    33  H    9.127927   9.718256   9.680025   8.148099   8.214969
    34  H   10.240743  11.015292  10.959188   9.096095   9.230437
    35  H    7.036918   6.893799   8.177474   6.981225   5.386863
    36  H    8.809352   8.089239   9.820241   9.061685   7.042103
    37  H    7.788212   8.228187   9.165814   7.258042   6.115894
    38  H    8.887633   9.604162  10.242847   8.046486   7.342021
    39  H    5.073702   6.352692   5.884344   3.881229   4.672399
                   11         12         13         14         15
    11  H    0.000000
    12  H    1.582732   0.000000
    13  H    2.360375   3.839458   0.000000
    14  H    3.823077   5.167080   1.570589   0.000000
    15  H    2.968198   3.489269   3.868216   4.985603   0.000000
    16  H    4.113799   3.948828   5.116511   5.900376   2.331255
    17  H    4.008798   5.271609   2.635780   2.669006   3.298848
    18  H    4.987243   5.971650   3.835133   3.527488   3.902137
    19  H    4.092940   5.226909   4.286773   5.539303   4.089345
    20  H    4.907889   6.273785   3.782643   4.148411   3.765302
    21  Si   6.047781   7.079704   5.827612   6.584122   4.056203
    22  O    7.399533   8.383439   7.252569   8.027548   5.496728
    23  O    6.001325   6.742665   6.174517   6.984620   3.386843
    24  O    6.606208   7.804280   5.796798   6.147428   4.745180
    25  O    4.733870   5.869732   4.607981   5.586409   3.414483
    26  Ca   9.413149  10.543989   8.811462   9.264392   7.576569
    27  O    9.766492  10.586994   9.751069  10.478862   7.537017
    28  O    8.986437  10.070250   8.682235   9.422458   7.668794
    29  O    8.516163   9.852593   7.430009   7.623773   7.120338
    30  O    9.179272  10.223097   8.517654   8.784055   6.891991
    31  H    8.120076   9.168110   7.918756   8.723845   6.700597
    32  H    8.866861  10.023299   8.444997   9.156012   7.852440
    33  H    8.781581   9.602103   8.819266   9.601666   6.584066
    34  H   10.096630  10.837214  10.145721  10.852985   7.671482
    35  H    7.206894   8.491963   6.217903   6.479127   5.606306
    36  H    8.826753  10.237783   7.527696   7.575319   7.677908
    37  H    8.265294   9.340065   7.556198   7.817805   6.037493
    38  H    9.381604  10.306714   8.905226   9.233841   6.886135
    39  H    5.110435   5.784953   5.482598   6.398479   2.422748
                   16         17         18         19         20
    16  H    0.000000
    17  H    4.369082   0.000000
    18  H    4.136204   1.573051   0.000000
    19  H    6.396403   4.817237   6.276111   0.000000
    20  H    5.564584   2.221382   3.427246   3.637088   0.000000
    21  Si   5.989091   4.448713   5.336747   3.608151   2.634559
    22  O    7.425650   6.009583   6.899240   4.304481   4.025725
    23  O    4.896705   4.580192   5.093700   4.518297   3.461214
    24  O    6.417275   3.922680   4.626603   4.600077   2.047067
    25  O    5.661064   3.931433   5.168860   2.045491   2.285776
    26  Ca   9.373473   7.291742   8.033588   6.219805   5.192306
    27  O    9.135431   8.265216   8.889032   6.745664   6.384354
    28  O    9.785465   7.874762   8.971370   5.143884   5.694587
    29  O    8.965380   5.962290   6.801967   5.611269   3.876510
    30  O    8.203303   6.416853   6.693932   6.941549   4.784052
    31  H    8.809485   7.080802   8.168939   4.394128   4.951574
    32  H   10.051709   7.852885   9.052845   4.912916   5.671538
    33  H    8.256377   7.413280   8.099214   5.821356   5.558784
    34  H    9.065032   8.508359   8.979540   7.359697   6.775367
    35  H    7.367088   4.518702   5.313890   4.808378   2.475492
    36  H    9.523684   6.173193   7.036456   5.986750   4.184730
    37  H    7.387232   5.437859   5.755293   6.223233   3.840769
    38  H    8.015950   6.744105   6.889371   7.335150   5.280034
    39  H    4.031477   4.092299   4.650325   4.148168   3.339898
                   21         22         23         24         25
    21  Si   0.000000
    22  O    1.610447   0.000000
    23  O    1.670651   2.718971   0.000000
    24  O    1.698317   2.672143   2.671199   0.000000
    25  O    1.621659   2.740195   2.657991   2.687913   0.000000
    26  Ca   3.530774   2.407724   4.629503   3.419287   4.726100
    27  O    3.938296   2.570658   4.290411   4.619478   5.259712
    28  O    3.937714   2.578925   5.275224   4.585225   4.417015
    29  O    3.475863   3.229583   4.888577   2.596880   4.233455
    30  O    3.469605   3.247226   3.843747   2.755160   5.003128
    31  H    3.025329   1.709488   4.341320   3.892787   3.512924
    32  H    4.297467   3.183761   5.778142   4.838663   4.482809
    33  H    3.026912   1.703464   3.411006   3.924886   4.311147
    34  H    4.335199   3.200355   4.345153   4.949945   5.759659
    35  H    2.268226   2.749408   3.541070   1.005627   3.107394
    36  H    4.266597   4.121954   5.711878   3.259311   4.808469
    37  H    2.782574   2.985711   3.205928   1.844295   4.246712
    38  H    3.747416   3.541776   3.715905   3.296715   5.350623
    39  H    2.155669   3.424398   0.979923   3.154527   2.515772
                   26         27         28         29         30
    26  Ca   0.000000
    27  O    2.534913   0.000000
    28  O    2.511175   3.314801   0.000000
    29  O    2.214255   4.579420   3.485193   0.000000
    30  O    2.484060   3.358764   4.781006   3.084823   0.000000
    31  H    2.508992   3.061388   0.989228   3.365628   4.400460
    32  H    3.120399   4.259208   0.958720   3.527325   5.381633
    33  H    2.531848   0.988978   3.068051   4.255070   3.243251
    34  H    3.205173   0.958245   4.267517   5.187921   3.371768
    35  H    2.892457   4.608826   4.105627   1.619177   2.747065
    36  H    3.030182   5.479919   4.066602   0.954476   3.873469
    37  H    2.805943   3.801942   4.816222   2.841509   0.979722
    38  H    3.119076   3.250716   5.292980   4.004940   0.959268
    39  H    5.472467   5.186839   5.881361   5.505160   4.740198
                   31         32         33         34         35
    31  H    0.000000
    32  H    1.566796   0.000000
    33  H    2.538371   3.957601   0.000000
    34  H    3.961086   5.206899   1.570751   0.000000
    35  H    3.583837   4.261653   4.026824   5.066469   0.000000
    36  H    4.068721   3.916719   5.187356   6.102917   2.256883
    37  H    4.294479   5.319400   3.429931   3.897091   2.030007
    38  H    4.850901   5.988159   3.191901   2.998463   3.510038
    39  H    4.911409   6.286838   4.269948   5.266099   4.064819
                   36         37         38         39
    36  H    0.000000
    37  H    3.623426   0.000000
    38  H    4.820624   1.551305   0.000000
    39  H    6.257371   4.017699   4.643041   0.000000
 Symmetry turned off by external request.
 Stoichiometry    Ca2H19O16Si2(1-)
 Framework group  C1[X(Ca2H19O16Si2)]
 Deg. of freedom   111
 Full point group                 C1      NOp   1
 Rotational constants (GHZ):           0.4366043           0.0910891           0.0903944
 Standard basis: 6-311++G(d,p) (5D, 7F)
   631 basis functions,   997 primitive gaussians,   653 cartesian basis functions
   108 alpha electrons      108 beta electrons
       nuclear repulsion energy      2926.7809995736 Hartrees.
 NAtoms=   39 NActive=   39 NUniq=   39 SFac= 1.00D+00 NAtFMM=   60 NAOKFM=F Big=F
 Integral buffers will be    131072 words long.
 Raffenetti 2 integral format.
 Two-electron integral symmetry is turned off.
 Nuclear repulsion after empirical dispersion term =     2926.7482874479 Hartrees.
 ------------------------------------------------------------------------------
 Polarizable Continuum Model (PCM)
 =================================
 Model                : C-PCM.
 Atomic radii         : UFF (Universal Force Field).
 Polarization charges : Total charges.
 Charge compensation  : None.
 Solution method      : On-the-fly selection.
 Cavity type          : Scaled VdW (van der Waals Surface) (Alpha=1.100).
 Cavity algorithm     : GePol (No added spheres)
                        Default sphere list used, NSphG=   39.
                        Lebedev-Laikov grids with approx.  5.0 points / Ang**2.
                        Smoothing algorithm: York/Karplus (Gamma=1.0000).
                        Polarization charges: spherical gaussians, with
                                              point-specific exponents (IZeta= 3).
                        Self-potential: point-specific (ISelfS= 7).
                        Self-field    : sphere-specific E.n sum rule (ISelfD= 2).
 Solvent              : Water, Eps=  78.355300 Eps(inf)=   1.777849
 ------------------------------------------------------------------------------
 One-electron integrals computed using PRISM.
 NBasis=   631 RedAO= T EigKep=  6.59D-05  NBF=   631
 NBsUse=   631 1.00D-06 EigRej= -1.00D+00 NBFU=   631
 ExpMin= 7.10D-03 ExpMax= 2.03D+05 ExpMxC= 6.92D+03 IAcc=3 IRadAn=         5 AccDes= 0.00D+00
 Harris functional with IExCor= 4639 and IRadAn=       5 diagonalized for initial guess.
 HarFok:  IExCor= 4639 AccDes= 0.00D+00 IRadAn=         5 IDoV= 1 UseB2=F ITyADJ=14
 ICtDFT=  3500011 ScaDFX=  1.000000  1.000000  1.000000  1.000000
 FoFCou: FMM=F IPFlag=           0 FMFlag=      100000 FMFlg1=           0
         NFxFlg=           0 DoJE=T BraDBF=F KetDBF=T FulRan=T
         wScrn=  0.000000 ICntrl=       500 IOpCl=  0 I1Cent=   200000004 NGrid=           0
         NMat0=    1 NMatS0=      1 NMatT0=    0 NMatD0=    1 NMtDS0=    0 NMtDT0=    0
 Symmetry not used in FoFCou.
 Requested convergence on RMS density matrix=1.00D-08 within  32 cycles.
 Requested convergence on MAX density matrix=1.00D-06.
 Requested convergence on             energy=1.00D-06.
 No special actions if energy rises.
 Inv3:  Mode=1 IEnd=    32967675.
 Iteration    1 A*A^-1 deviation from unit magnitude is 8.55D-15 for   3031.
 Iteration    1 A*A^-1 deviation from orthogonality  is 6.00D-15 for   1846   1549.
 Iteration    1 A^-1*A deviation from unit magnitude is 8.44D-15 for   3031.
 Iteration    1 A^-1*A deviation from orthogonality  is 4.26D-15 for    780    269.
 Error on total polarization charges =  0.02397
 SCF Done:  E(RwB97XD) =  -3150.32164971     A.U. after   14 cycles
            NFock= 14  Conv=0.42D-08     -V/T= 2.0022
 QCSCF skips out because SCF is already converged.

 **********************************************************************

            Population analysis using the SCF Density.

 **********************************************************************

 Alpha  occ. eigenvalues -- -145.48118-145.46491 -66.27829 -66.26070 -19.26086
 Alpha  occ. eigenvalues --  -19.25018 -19.24934 -19.24594 -19.22971 -19.22554
 Alpha  occ. eigenvalues --  -19.20974 -19.20922 -19.20545 -19.19880 -19.19165
 Alpha  occ. eigenvalues --  -19.17064 -19.17049 -19.16682 -19.15829 -19.13555
 Alpha  occ. eigenvalues --  -15.47684 -15.46043 -12.59598 -12.59585 -12.59537
 Alpha  occ. eigenvalues --  -12.57952 -12.57939 -12.57907  -5.39641  -5.38741
 Alpha  occ. eigenvalues --   -3.74289  -3.74208  -3.74054  -3.73284  -3.73277
 Alpha  occ. eigenvalues --   -3.73145  -1.82755  -1.81244  -1.13272  -1.12537
 Alpha  occ. eigenvalues --   -1.11924  -1.11872  -1.10485  -1.09823  -1.09485
 Alpha  occ. eigenvalues --   -1.09046  -1.08897  -1.08594  -1.08244  -1.07480
 Alpha  occ. eigenvalues --   -1.07113  -1.06870  -1.05845  -1.05183  -1.03856
 Alpha  occ. eigenvalues --   -1.00398  -0.98834  -0.98646  -0.97747  -0.95247
 Alpha  occ. eigenvalues --   -0.64080  -0.63696  -0.62925  -0.62661  -0.62435
 Alpha  occ. eigenvalues --   -0.60702  -0.60075  -0.59151  -0.56390  -0.55008
 Alpha  occ. eigenvalues --   -0.54726  -0.53463  -0.50972  -0.50406  -0.49633
 Alpha  occ. eigenvalues --   -0.49316  -0.48778  -0.48505  -0.47725  -0.47097
 Alpha  occ. eigenvalues --   -0.46228  -0.46066  -0.45470  -0.44217  -0.43311
 Alpha  occ. eigenvalues --   -0.42713  -0.42064  -0.41905  -0.41510  -0.41078
 Alpha  occ. eigenvalues --   -0.40599  -0.40007  -0.39574  -0.38965  -0.38646
 Alpha  occ. eigenvalues --   -0.37890  -0.37305  -0.36547  -0.36001  -0.35555
 Alpha  occ. eigenvalues --   -0.35264  -0.34340  -0.34089  -0.33716  -0.33261
 Alpha  occ. eigenvalues --   -0.32906  -0.32625  -0.31825
 Alpha virt. eigenvalues --    0.01457   0.01574   0.01954   0.01987   0.02355
 Alpha virt. eigenvalues --    0.02365   0.02405   0.03322   0.05468   0.05635
 Alpha virt. eigenvalues --    0.06712   0.06848   0.06973   0.07153   0.07235
 Alpha virt. eigenvalues --    0.07722   0.08139   0.08433   0.08586   0.08920
 Alpha virt. eigenvalues --    0.09405   0.09865   0.10185   0.10528   0.11054
 Alpha virt. eigenvalues --    0.11730   0.12226   0.12564   0.12809   0.13128
 Alpha virt. eigenvalues --    0.13426   0.13588   0.14541   0.14826   0.15161
 Alpha virt. eigenvalues --    0.16174   0.16651   0.16752   0.17409   0.17434
 Alpha virt. eigenvalues --    0.17561   0.17761   0.18230   0.18360   0.18398
 Alpha virt. eigenvalues --    0.18759   0.18954   0.19287   0.19915   0.20888
 Alpha virt. eigenvalues --    0.21715   0.21869   0.22059   0.22260   0.22872
 Alpha virt. eigenvalues --    0.22988   0.23606   0.23689   0.24036   0.24316
 Alpha virt. eigenvalues --    0.24406   0.25063   0.25399   0.25583   0.25832
 Alpha virt. eigenvalues --    0.26158   0.26310   0.26620   0.26862   0.27223
 Alpha virt. eigenvalues --    0.27629   0.27879   0.28092   0.28944   0.29353
 Alpha virt. eigenvalues --    0.29537   0.29985   0.30117   0.30585   0.30804
 Alpha virt. eigenvalues --    0.30987   0.31383   0.31511   0.31634   0.32304
 Alpha virt. eigenvalues --    0.32515   0.32658   0.33054   0.33367   0.33411
 Alpha virt. eigenvalues --    0.33794   0.34037   0.34241   0.34293   0.34682
 Alpha virt. eigenvalues --    0.34939   0.35109   0.35315   0.35687   0.36084
 Alpha virt. eigenvalues --    0.36556   0.36661   0.37196   0.37298   0.37523
 Alpha virt. eigenvalues --    0.38013   0.38270   0.38517   0.38663   0.39214
 Alpha virt. eigenvalues --    0.39339   0.39783   0.39874   0.40248   0.40531
 Alpha virt. eigenvalues --    0.41158   0.41409   0.41920   0.42350   0.42603
 Alpha virt. eigenvalues --    0.42786   0.43186   0.44126   0.44763   0.44945
 Alpha virt. eigenvalues --    0.45213   0.45659   0.45721   0.46500   0.47125
 Alpha virt. eigenvalues --    0.47892   0.47999   0.48790   0.49071   0.49394
 Alpha virt. eigenvalues --    0.49999   0.50285   0.50664   0.50811   0.51693
 Alpha virt. eigenvalues --    0.52200   0.52860   0.53780   0.54085   0.54921
 Alpha virt. eigenvalues --    0.55345   0.56136   0.57013   0.57641   0.58514
 Alpha virt. eigenvalues --    0.59458   0.60067   0.62394   0.63553   0.63985
 Alpha virt. eigenvalues --    0.64382   0.64770   0.65350   0.65680   0.66015
 Alpha virt. eigenvalues --    0.67208   0.67471   0.68005   0.68265   0.69234
 Alpha virt. eigenvalues --    0.70417   0.70994   0.71232   0.71847   0.73953
 Alpha virt. eigenvalues --    0.75500   0.76182   0.76535   0.77372   0.79493
 Alpha virt. eigenvalues --    0.81101   0.82523   0.84434   0.86627   0.87238
 Alpha virt. eigenvalues --    0.89021   0.90779   0.91015   0.91313   0.92631
 Alpha virt. eigenvalues --    0.96965   0.99020   0.99613   1.01881   1.04009
 Alpha virt. eigenvalues --    1.05551   1.06558   1.07958   1.09357   1.09853
 Alpha virt. eigenvalues --    1.10527   1.11460   1.11625   1.12076   1.13344
 Alpha virt. eigenvalues --    1.14057   1.14502   1.15667   1.16192   1.16341
 Alpha virt. eigenvalues --    1.17853   1.18115   1.18645   1.19235   1.19461
 Alpha virt. eigenvalues --    1.19943   1.20474   1.20781   1.21857   1.22393
 Alpha virt. eigenvalues --    1.22823   1.22981   1.24724   1.25577   1.25799
 Alpha virt. eigenvalues --    1.26290   1.26902   1.27213   1.28045   1.28826
 Alpha virt. eigenvalues --    1.29034   1.29518   1.29918   1.30361   1.30438
 Alpha virt. eigenvalues --    1.31246   1.31364   1.31633   1.32411   1.33036
 Alpha virt. eigenvalues --    1.33739   1.34224   1.34730   1.35597   1.36062
 Alpha virt. eigenvalues --    1.36263   1.36922   1.37193   1.38178   1.39043
 Alpha virt. eigenvalues --    1.39744   1.40568   1.42729   1.43963   1.44767
 Alpha virt. eigenvalues --    1.45349   1.46867   1.48040   1.48384   1.48812
 Alpha virt. eigenvalues --    1.49046   1.50300   1.51643   1.52512   1.53181
 Alpha virt. eigenvalues --    1.54201   1.55601   1.55803   1.56861   1.57100
 Alpha virt. eigenvalues --    1.57337   1.57696   1.58649   1.59955   1.61131
 Alpha virt. eigenvalues --    1.61310   1.61919   1.62309   1.63109   1.64204
 Alpha virt. eigenvalues --    1.65319   1.66503   1.67732   1.68430   1.68702
 Alpha virt. eigenvalues --    1.69471   1.69931   1.71630   1.72776   1.73623
 Alpha virt. eigenvalues --    1.74079   1.74462   1.76801   1.77084   1.77814
 Alpha virt. eigenvalues --    1.78754   1.79018   1.79871   1.81768   1.82544
 Alpha virt. eigenvalues --    1.83554   1.84953   1.86269   1.87202   1.88207
 Alpha virt. eigenvalues --    1.89773   1.91760   1.93282   1.94681   1.95605
 Alpha virt. eigenvalues --    1.97004   1.99103   2.00916   2.03190   2.03588
 Alpha virt. eigenvalues --    2.04732   2.07152   2.10556   2.15832   2.16292
 Alpha virt. eigenvalues --    2.16734   2.17670   2.19129   2.19457   2.23603
 Alpha virt. eigenvalues --    2.24230   2.24467   2.26451   2.28600   2.30145
 Alpha virt. eigenvalues --    2.31043   2.32710   2.34986   2.38395   2.39019
 Alpha virt. eigenvalues --    2.40241   2.44408   2.45290   2.47429   2.58575
 Alpha virt. eigenvalues --    2.62001   2.64461   2.65783   2.66872   2.70264
 Alpha virt. eigenvalues --    2.72320   2.72823   2.76191   2.78619   2.81833
 Alpha virt. eigenvalues --    2.83388   2.84231   2.85532   2.89236   2.92049
 Alpha virt. eigenvalues --    2.92232   2.94265   2.95907   2.97320   2.99707
 Alpha virt. eigenvalues --    3.00223   3.01272   3.01459   3.02202   3.02694
 Alpha virt. eigenvalues --    3.03546   3.05245   3.06680   3.09650   3.10840
 Alpha virt. eigenvalues --    3.10930   3.12547   3.13394   3.13468   3.14737
 Alpha virt. eigenvalues --    3.15365   3.15754   3.16442   3.17240   3.17543
 Alpha virt. eigenvalues --    3.18273   3.19502   3.20063   3.20327   3.21990
 Alpha virt. eigenvalues --    3.22471   3.23074   3.23371   3.24028   3.24271
 Alpha virt. eigenvalues --    3.25151   3.25748   3.26620   3.27481   3.27993
 Alpha virt. eigenvalues --    3.28338   3.29014   3.29176   3.29409   3.30999
 Alpha virt. eigenvalues --    3.32479   3.33409   3.35542   3.36620   3.39711
 Alpha virt. eigenvalues --    3.40834   3.41221   3.41350   3.42846   3.44046
 Alpha virt. eigenvalues --    3.44158   3.45057   3.45346   3.49110   3.49674
 Alpha virt. eigenvalues --    3.49952   3.58439   3.58710   3.65386   3.82595
 Alpha virt. eigenvalues --    3.83084   3.83896   3.84176   3.84848   3.86302
 Alpha virt. eigenvalues --    3.99000   4.01817   4.02262   4.02983   4.03340
 Alpha virt. eigenvalues --    4.04180   4.04877   4.05748   4.07119   4.08551
 Alpha virt. eigenvalues --    4.09226   4.09807   4.10271   4.49295   4.50547
 Alpha virt. eigenvalues --    4.56268   4.56843   4.57806   4.64792   5.13914
 Alpha virt. eigenvalues --    5.14386   5.15249   5.16859   5.17550   5.18154
 Alpha virt. eigenvalues --    5.19317   5.20041   5.21022   5.21693   5.21945
 Alpha virt. eigenvalues --    5.23041   5.23836   5.25246   5.26113   5.27051
 Alpha virt. eigenvalues --    5.28214   5.29367   5.30984   5.31694   5.34546
 Alpha virt. eigenvalues --    5.38038   5.39984   5.40828   5.42671   5.44125
 Alpha virt. eigenvalues --    5.45899   5.47765   5.47877   5.50938   5.52098
 Alpha virt. eigenvalues --    5.53763   5.56415   5.58031   5.61842   5.70482
 Alpha virt. eigenvalues --    5.72959   5.73513   5.75264   5.77058   5.77256
 Alpha virt. eigenvalues --    5.79276   5.79610   5.80302   5.81529   5.82811
 Alpha virt. eigenvalues --    5.84704   5.89178   6.21393   6.23268  11.62877
 Alpha virt. eigenvalues --   11.66533  11.70064  11.72739  11.83132  11.91065
 Alpha virt. eigenvalues --   14.93928  14.94331  50.03273  50.03633  50.04773
 Alpha virt. eigenvalues --   50.05281  50.06189  50.07819  50.11293  50.12176
 Alpha virt. eigenvalues --   50.13274  50.13559  50.15845  50.16627  50.17358
 Alpha virt. eigenvalues --   50.18476  50.19407  50.25459 108.66641 108.67917
 Alpha virt. eigenvalues --  108.71461 108.71488 108.72336 108.77543 141.65087
 Alpha virt. eigenvalues --  141.70784 318.04488 318.04962
          Condensed to atoms (all electrons):
               1          2          3          4          5          6
     1  Si  13.123024   0.116498  -0.175529   0.085809   0.108243   0.028024
     2  O    0.116498   9.360565  -0.112039  -0.083538  -0.094706   0.059896
     3  O   -0.175529  -0.112039   8.915445   0.034798   0.008635  -0.011279
     4  O    0.085809  -0.083538   0.034798   8.693378   0.000710  -0.005593
     5  O    0.108243  -0.094706   0.008635   0.000710   8.361286   0.010950
     6  Ca   0.028024   0.059896  -0.011279  -0.005593   0.010950  18.500557
     7  O   -0.010131  -0.088079  -0.000241  -0.001862  -0.002127   0.021586
     8  O   -0.003241  -0.077052   0.001305  -0.002560  -0.006837   0.019870
     9  O   -0.005996  -0.014224   0.001803   0.012000  -0.002425   0.045035
    10  O   -0.000038  -0.048874   0.017864  -0.007618  -0.000805   0.014968
    11  H    0.004852  -0.003351  -0.003514  -0.007808   0.005945  -0.017900
    12  H    0.001024   0.005994   0.000350   0.001621  -0.000598  -0.012814
    13  H    0.000876   0.016613   0.018736   0.010215  -0.014138  -0.026372
    14  H   -0.004396   0.008630   0.002597  -0.000379   0.000790  -0.010746
    15  H   -0.062183  -0.043741   0.030831   0.103174  -0.014458  -0.034322
    16  H    0.000909   0.001441  -0.000363   0.005599  -0.000046  -0.014730
    17  H    0.049440   0.005640  -0.042157   0.010066   0.003726   0.013343
    18  H    0.002750   0.001133   0.006072  -0.000507  -0.000349  -0.006861
    19  H    0.044098   0.018498  -0.007338  -0.007512   0.193137  -0.003033
    20  H    0.036719   0.031140   0.033217  -0.026546  -0.015862   0.001447
    21  Si  -0.487658  -0.011059   0.062473   0.032700   0.004487  -0.000552
    22  O   -0.020627  -0.000313   0.005796  -0.007543  -0.003462   0.000228
    23  O    0.038195  -0.000377  -0.005417  -0.002298   0.000759   0.000034
    24  O   -0.007873   0.000769   0.069282   0.000170   0.002891  -0.000551
    25  O    0.079848  -0.104294   0.011447  -0.017384   0.061226  -0.001885
    26  Ca   0.003096   0.000465  -0.002073  -0.001750  -0.000879  -0.000600
    27  O    0.002141   0.000000   0.000019  -0.000004  -0.000005  -0.000031
    28  O   -0.002532   0.000005  -0.000010  -0.000044  -0.000187   0.000061
    29  O   -0.004103  -0.000001   0.001888  -0.000010   0.000081  -0.000047
    30  O    0.000299  -0.000001   0.000092   0.000015  -0.000009  -0.000060
    31  H    0.007813  -0.000058   0.000485   0.000032   0.000319   0.000055
    32  H   -0.001467  -0.000030   0.000046   0.000024   0.000076   0.000105
    33  H   -0.010215  -0.000136   0.000352   0.000519   0.000130   0.000240
    34  H    0.000438   0.000002   0.000006   0.000019  -0.000001   0.000060
    35  H    0.038499   0.000104  -0.022742  -0.001023   0.002321  -0.000079
    36  H    0.000202   0.000023   0.000441   0.000026  -0.000000   0.000104
    37  H   -0.001365   0.000110  -0.000382   0.000760  -0.000009   0.000389
    38  H   -0.001545   0.000005  -0.000022   0.000022   0.000005   0.000033
    39  H    0.022374   0.004579  -0.008363   0.020737   0.002733   0.002900
               7          8          9         10         11         12
     1  Si  -0.010131  -0.003241  -0.005996  -0.000038   0.004852   0.001024
     2  O   -0.088079  -0.077052  -0.014224  -0.048874  -0.003351   0.005994
     3  O   -0.000241   0.001305   0.001803   0.017864  -0.003514   0.000350
     4  O   -0.001862  -0.002560   0.012000  -0.007618  -0.007808   0.001621
     5  O   -0.002127  -0.006837  -0.002425  -0.000805   0.005945  -0.000598
     6  Ca   0.021586   0.019870   0.045035   0.014968  -0.017900  -0.012814
     7  O    8.099871   0.003785  -0.002425   0.005362  -0.010634  -0.001005
     8  O    0.003785   8.078819   0.014504  -0.001032   0.259339   0.305151
     9  O   -0.002425   0.014504   8.860166   0.001389  -0.009372   0.006186
    10  O    0.005362  -0.001032   0.001389   8.139464  -0.000301  -0.000132
    11  H   -0.010634   0.259339  -0.009372  -0.000301   0.455085  -0.015777
    12  H   -0.001005   0.305151   0.006186  -0.000132  -0.015777   0.426503
    13  H    0.241793  -0.011464   0.003895  -0.004454   0.005403   0.004200
    14  H    0.297288  -0.000894  -0.000359   0.008930   0.003001   0.000020
    15  H    0.000394   0.003489  -0.045071   0.007826   0.007644  -0.005476
    16  H    0.000287   0.001463   0.230185  -0.000489  -0.001377   0.001258
    17  H    0.001329  -0.002746  -0.006437   0.196507   0.006243  -0.000448
    18  H    0.002832   0.000116   0.002133   0.302552  -0.000195   0.000014
    19  H   -0.000477  -0.000200  -0.000108  -0.000084   0.001546   0.000552
    20  H    0.001982   0.001277  -0.001245  -0.016706  -0.005244   0.000228
    21  Si   0.000479  -0.000157  -0.007366   0.007674  -0.007940  -0.000111
    22  O    0.000001  -0.000001  -0.000023   0.000111  -0.000168   0.000005
    23  O   -0.000031   0.000065   0.002964  -0.000161  -0.000103   0.000074
    24  O   -0.000026  -0.000006   0.000194   0.000650   0.000512  -0.000013
    25  O    0.000358   0.001152   0.001824   0.004867   0.006610  -0.000483
    26  Ca   0.000015  -0.000010   0.000018   0.000083   0.000034   0.000106
    27  O   -0.000000  -0.000000  -0.000000   0.000000   0.000001  -0.000000
    28  O   -0.000000  -0.000000  -0.000000   0.000000  -0.000009   0.000000
    29  O    0.000001  -0.000000  -0.000000   0.000011  -0.000003  -0.000000
    30  O    0.000000  -0.000000  -0.000001   0.000019   0.000005  -0.000000
    31  H    0.000005  -0.000004   0.000006   0.000029   0.000111  -0.000006
    32  H   -0.000000   0.000000  -0.000000  -0.000001  -0.000006   0.000000
    33  H   -0.000001  -0.000001   0.000008   0.000021  -0.000018  -0.000000
    34  H    0.000000   0.000000  -0.000000  -0.000000   0.000001  -0.000000
    35  H   -0.000030  -0.000048   0.000038  -0.000754   0.000381  -0.000012
    36  H   -0.000000   0.000000   0.000001  -0.000005  -0.000002  -0.000000
    37  H   -0.000004   0.000001   0.000015  -0.000150  -0.000043   0.000001
    38  H    0.000000  -0.000000   0.000002   0.000003  -0.000003  -0.000000
    39  H   -0.000049  -0.000492  -0.001503  -0.003984  -0.000113   0.000249
              13         14         15         16         17         18
     1  Si   0.000876  -0.004396  -0.062183   0.000909   0.049440   0.002750
     2  O    0.016613   0.008630  -0.043741   0.001441   0.005640   0.001133
     3  O    0.018736   0.002597   0.030831  -0.000363  -0.042157   0.006072
     4  O    0.010215  -0.000379   0.103174   0.005599   0.010066  -0.000507
     5  O   -0.014138   0.000790  -0.014458  -0.000046   0.003726  -0.000349
     6  Ca  -0.026372  -0.010746  -0.034322  -0.014730   0.013343  -0.006861
     7  O    0.241793   0.297288   0.000394   0.000287   0.001329   0.002832
     8  O   -0.011464  -0.000894   0.003489   0.001463  -0.002746   0.000116
     9  O    0.003895  -0.000359  -0.045071   0.230185  -0.006437   0.002133
    10  O   -0.004454   0.008930   0.007826  -0.000489   0.196507   0.302552
    11  H    0.005403   0.003001   0.007644  -0.001377   0.006243  -0.000195
    12  H    0.004200   0.000020  -0.005476   0.001258  -0.000448   0.000014
    13  H    0.461099  -0.009812   0.003747  -0.000475   0.006871  -0.002891
    14  H   -0.009812   0.429474   0.000244   0.000053  -0.010993   0.001434
    15  H    0.003747   0.000244   0.615253  -0.004701  -0.014500   0.001881
    16  H   -0.000475   0.000053  -0.004701   0.482016   0.000052   0.000352
    17  H    0.006871  -0.010993  -0.014500   0.000052   0.513179  -0.020964
    18  H   -0.002891   0.001434   0.001881   0.000352  -0.020964   0.399914
    19  H    0.003231   0.000320  -0.002081   0.000194  -0.001142   0.000113
    20  H   -0.002232   0.003567  -0.006826   0.000695  -0.022023  -0.001825
    21  Si  -0.006049   0.000894   0.049598   0.000186  -0.017903  -0.001728
    22  O    0.000125   0.000005   0.000210   0.000007  -0.001643   0.000171
    23  O    0.000267  -0.000046  -0.017625   0.000747   0.001320  -0.000174
    24  O    0.000248  -0.000041   0.001922  -0.000080  -0.000836  -0.000082
    25  O    0.004914  -0.000928   0.030995  -0.000449   0.003964  -0.000339
    26  Ca   0.000252   0.000054   0.000170   0.000154  -0.000792   0.000027
    27  O    0.000001  -0.000000  -0.000003   0.000001   0.000003   0.000002
    28  O    0.000001  -0.000000  -0.000030   0.000000   0.000025  -0.000001
    29  O   -0.000033   0.000007   0.000140  -0.000001   0.000081  -0.000004
    30  O    0.000010   0.000003   0.000314  -0.000007  -0.000370   0.000062
    31  H   -0.000005   0.000004   0.000221  -0.000008  -0.000063   0.000004
    32  H   -0.000004  -0.000001  -0.000013   0.000000   0.000020  -0.000001
    33  H   -0.000005   0.000001   0.000279  -0.000017   0.000068  -0.000021
    34  H   -0.000001   0.000000   0.000006  -0.000000  -0.000004   0.000001
    35  H    0.000062  -0.000022  -0.000636  -0.000051   0.006088  -0.000364
    36  H   -0.000028   0.000004  -0.000012   0.000000  -0.000037   0.000024
    37  H   -0.000143  -0.000004  -0.001017   0.000027   0.000407  -0.000081
    38  H   -0.000009   0.000001  -0.000007  -0.000004   0.000092  -0.000021
    39  H   -0.000064  -0.000042  -0.032443  -0.001705   0.002618  -0.000126
              19         20         21         22         23         24
     1  Si   0.044098   0.036719  -0.487658  -0.020627   0.038195  -0.007873
     2  O    0.018498   0.031140  -0.011059  -0.000313  -0.000377   0.000769
     3  O   -0.007338   0.033217   0.062473   0.005796  -0.005417   0.069282
     4  O   -0.007512  -0.026546   0.032700  -0.007543  -0.002298   0.000170
     5  O    0.193137  -0.015862   0.004487  -0.003462   0.000759   0.002891
     6  Ca  -0.003033   0.001447  -0.000552   0.000228   0.000034  -0.000551
     7  O   -0.000477   0.001982   0.000479   0.000001  -0.000031  -0.000026
     8  O   -0.000200   0.001277  -0.000157  -0.000001   0.000065  -0.000006
     9  O   -0.000108  -0.001245  -0.007366  -0.000023   0.002964   0.000194
    10  O   -0.000084  -0.016706   0.007674   0.000111  -0.000161   0.000650
    11  H    0.001546  -0.005244  -0.007940  -0.000168  -0.000103   0.000512
    12  H    0.000552   0.000228  -0.000111   0.000005   0.000074  -0.000013
    13  H    0.003231  -0.002232  -0.006049   0.000125   0.000267   0.000248
    14  H    0.000320   0.003567   0.000894   0.000005  -0.000046  -0.000041
    15  H   -0.002081  -0.006826   0.049598   0.000210  -0.017625   0.001922
    16  H    0.000194   0.000695   0.000186   0.000007   0.000747  -0.000080
    17  H   -0.001142  -0.022023  -0.017903  -0.001643   0.001320  -0.000836
    18  H    0.000113  -0.001825  -0.001728   0.000171  -0.000174  -0.000082
    19  H    0.494114  -0.000012  -0.017328  -0.001196   0.002845   0.000355
    20  H   -0.000012   0.595824   0.055031   0.005339  -0.006310  -0.042392
    21  Si  -0.017328   0.055031  12.991808   0.011929   0.013123  -0.062336
    22  O   -0.001196   0.005339   0.011929   9.187256  -0.065313  -0.010208
    23  O    0.002845  -0.006310   0.013123  -0.065313   8.378565   0.040252
    24  O    0.000355  -0.042392  -0.062336  -0.010208   0.040252   8.601863
    25  O   -0.011825  -0.024808   0.153572   0.044685   0.013575   0.082453
    26  Ca   0.001084   0.005468   0.004611   0.043118   0.002123  -0.030333
    27  O   -0.000002  -0.000069  -0.003204  -0.032114  -0.001752  -0.009029
    28  O    0.000002  -0.000477  -0.005224  -0.030795  -0.000646  -0.002837
    29  O   -0.000461  -0.004863  -0.004329   0.008168  -0.004526  -0.066247
    30  O    0.000006  -0.000028   0.015400   0.011040  -0.010222   0.044501
    31  H   -0.001673  -0.001166   0.020778  -0.035661   0.000965   0.004002
    32  H   -0.000065   0.000124   0.002664  -0.000311   0.000507   0.000024
    33  H    0.000072  -0.001433   0.012864  -0.027170  -0.013496   0.014557
    34  H   -0.000040   0.000049   0.002136  -0.000050   0.000322   0.000151
    35  H    0.000973  -0.028618   0.000308  -0.063584   0.023748   0.249672
    36  H   -0.000107  -0.001311   0.001370   0.001230  -0.000281   0.003146
    37  H   -0.000166   0.004681   0.025565  -0.028226  -0.002132  -0.038594
    38  H    0.000012  -0.000870   0.010620  -0.007111  -0.001747  -0.011575
    39  H   -0.000311   0.005247  -0.048151   0.001187   0.278550   0.012513
              25         26         27         28         29         30
     1  Si   0.079848   0.003096   0.002141  -0.002532  -0.004103   0.000299
     2  O   -0.104294   0.000465   0.000000   0.000005  -0.000001  -0.000001
     3  O    0.011447  -0.002073   0.000019  -0.000010   0.001888   0.000092
     4  O   -0.017384  -0.001750  -0.000004  -0.000044  -0.000010   0.000015
     5  O    0.061226  -0.000879  -0.000005  -0.000187   0.000081  -0.000009
     6  Ca  -0.001885  -0.000600  -0.000031   0.000061  -0.000047  -0.000060
     7  O    0.000358   0.000015  -0.000000  -0.000000   0.000001   0.000000
     8  O    0.001152  -0.000010  -0.000000  -0.000000  -0.000000  -0.000000
     9  O    0.001824   0.000018  -0.000000  -0.000000  -0.000000  -0.000001
    10  O    0.004867   0.000083   0.000000   0.000000   0.000011   0.000019
    11  H    0.006610   0.000034   0.000001  -0.000009  -0.000003   0.000005
    12  H   -0.000483   0.000106  -0.000000   0.000000  -0.000000  -0.000000
    13  H    0.004914   0.000252   0.000001   0.000001  -0.000033   0.000010
    14  H   -0.000928   0.000054  -0.000000  -0.000000   0.000007   0.000003
    15  H    0.030995   0.000170  -0.000003  -0.000030   0.000140   0.000314
    16  H   -0.000449   0.000154   0.000001   0.000000  -0.000001  -0.000007
    17  H    0.003964  -0.000792   0.000003   0.000025   0.000081  -0.000370
    18  H   -0.000339   0.000027   0.000002  -0.000001  -0.000004   0.000062
    19  H   -0.011825   0.001084  -0.000002   0.000002  -0.000461   0.000006
    20  H   -0.024808   0.005468  -0.000069  -0.000477  -0.004863  -0.000028
    21  Si   0.153572   0.004611  -0.003204  -0.005224  -0.004329   0.015400
    22  O    0.044685   0.043118  -0.032114  -0.030795   0.008168   0.011040
    23  O    0.013575   0.002123  -0.001752  -0.000646  -0.004526  -0.010222
    24  O    0.082453  -0.030333  -0.009029  -0.002837  -0.066247   0.044501
    25  O    8.655046  -0.017147   0.001946   0.003509  -0.004405   0.001403
    26  Ca  -0.017147  18.476022   0.024756   0.030170   0.057126   0.009877
    27  O    0.001946   0.024756   8.003045  -0.001176  -0.002970   0.027144
    28  O    0.003509   0.030170  -0.001176   7.964812   0.004795  -0.002363
    29  O   -0.004405   0.057126  -0.002970   0.004795   8.853908  -0.004673
    30  O    0.001403   0.009877   0.027144  -0.002363  -0.004673   7.946870
    31  H   -0.007511  -0.009715   0.001281   0.287308  -0.010977   0.002571
    32  H   -0.000646  -0.014260  -0.001526   0.321252   0.003268  -0.000304
    33  H   -0.001358  -0.021231   0.272091  -0.001198   0.003419  -0.018478
    34  H    0.000376  -0.014879   0.307731  -0.000890  -0.000137   0.002452
    35  H   -0.014961  -0.008318   0.004487  -0.001817   0.029850  -0.018476
    36  H    0.001187  -0.016743   0.000150  -0.000320   0.220813  -0.002709
    37  H    0.001829  -0.006965  -0.003480   0.000467  -0.002392   0.251200
    38  H    0.000568  -0.012799  -0.002094   0.000312  -0.001535   0.305997
    39  H   -0.014276  -0.001026  -0.000511   0.000231  -0.000010  -0.000200
              31         32         33         34         35         36
     1  Si   0.007813  -0.001467  -0.010215   0.000438   0.038499   0.000202
     2  O   -0.000058  -0.000030  -0.000136   0.000002   0.000104   0.000023
     3  O    0.000485   0.000046   0.000352   0.000006  -0.022742   0.000441
     4  O    0.000032   0.000024   0.000519   0.000019  -0.001023   0.000026
     5  O    0.000319   0.000076   0.000130  -0.000001   0.002321  -0.000000
     6  Ca   0.000055   0.000105   0.000240   0.000060  -0.000079   0.000104
     7  O    0.000005  -0.000000  -0.000001   0.000000  -0.000030  -0.000000
     8  O   -0.000004   0.000000  -0.000001   0.000000  -0.000048   0.000000
     9  O    0.000006  -0.000000   0.000008  -0.000000   0.000038   0.000001
    10  O    0.000029  -0.000001   0.000021  -0.000000  -0.000754  -0.000005
    11  H    0.000111  -0.000006  -0.000018   0.000001   0.000381  -0.000002
    12  H   -0.000006   0.000000  -0.000000  -0.000000  -0.000012  -0.000000
    13  H   -0.000005  -0.000004  -0.000005  -0.000001   0.000062  -0.000028
    14  H    0.000004  -0.000001   0.000001   0.000000  -0.000022   0.000004
    15  H    0.000221  -0.000013   0.000279   0.000006  -0.000636  -0.000012
    16  H   -0.000008   0.000000  -0.000017  -0.000000  -0.000051   0.000000
    17  H   -0.000063   0.000020   0.000068  -0.000004   0.006088  -0.000037
    18  H    0.000004  -0.000001  -0.000021   0.000001  -0.000364   0.000024
    19  H   -0.001673  -0.000065   0.000072  -0.000040   0.000973  -0.000107
    20  H   -0.001166   0.000124  -0.001433   0.000049  -0.028618  -0.001311
    21  Si   0.020778   0.002664   0.012864   0.002136   0.000308   0.001370
    22  O   -0.035661  -0.000311  -0.027170  -0.000050  -0.063584   0.001230
    23  O    0.000965   0.000507  -0.013496   0.000322   0.023748  -0.000281
    24  O    0.004002   0.000024   0.014557   0.000151   0.249672   0.003146
    25  O   -0.007511  -0.000646  -0.001358   0.000376  -0.014961   0.001187
    26  Ca  -0.009715  -0.014260  -0.021231  -0.014879  -0.008318  -0.016743
    27  O    0.001281  -0.001526   0.272091   0.307731   0.004487   0.000150
    28  O    0.287308   0.321252  -0.001198  -0.000890  -0.001817  -0.000320
    29  O   -0.010977   0.003268   0.003419  -0.000137   0.029850   0.220813
    30  O    0.002571  -0.000304  -0.018478   0.002452  -0.018476  -0.002709
    31  H    0.438248  -0.014236  -0.011934   0.003045   0.007950   0.000508
    32  H   -0.014236   0.397678   0.003796   0.000026  -0.000065   0.000270
    33  H   -0.011934   0.003796   0.464237  -0.010332  -0.003720  -0.000527
    34  H    0.003045   0.000026  -0.010332   0.404823  -0.000160   0.000089
    35  H    0.007950  -0.000065  -0.003720  -0.000160   0.454790   0.001487
    36  H    0.000508   0.000270  -0.000527   0.000089   0.001487   0.456528
    37  H   -0.001437   0.000331   0.003053   0.001465   0.008764   0.001953
    38  H   -0.000449   0.000055   0.004546  -0.002380   0.004028  -0.000003
    39  H    0.000796   0.000059   0.001853  -0.000044  -0.000841   0.000085
              37         38         39
     1  Si  -0.001365  -0.001545   0.022374
     2  O    0.000110   0.000005   0.004579
     3  O   -0.000382  -0.000022  -0.008363
     4  O    0.000760   0.000022   0.020737
     5  O   -0.000009   0.000005   0.002733
     6  Ca   0.000389   0.000033   0.002900
     7  O   -0.000004   0.000000  -0.000049
     8  O    0.000001  -0.000000  -0.000492
     9  O    0.000015   0.000002  -0.001503
    10  O   -0.000150   0.000003  -0.003984
    11  H   -0.000043  -0.000003  -0.000113
    12  H    0.000001  -0.000000   0.000249
    13  H   -0.000143  -0.000009  -0.000064
    14  H   -0.000004   0.000001  -0.000042
    15  H   -0.001017  -0.000007  -0.032443
    16  H    0.000027  -0.000004  -0.001705
    17  H    0.000407   0.000092   0.002618
    18  H   -0.000081  -0.000021  -0.000126
    19  H   -0.000166   0.000012  -0.000311
    20  H    0.004681  -0.000870   0.005247
    21  Si   0.025565   0.010620  -0.048151
    22  O   -0.028226  -0.007111   0.001187
    23  O   -0.002132  -0.001747   0.278550
    24  O   -0.038594  -0.011575   0.012513
    25  O    0.001829   0.000568  -0.014276
    26  Ca  -0.006965  -0.012799  -0.001026
    27  O   -0.003480  -0.002094  -0.000511
    28  O    0.000467   0.000312   0.000231
    29  O   -0.002392  -0.001535  -0.000010
    30  O    0.251200   0.305997  -0.000200
    31  H   -0.001437  -0.000449   0.000796
    32  H    0.000331   0.000055   0.000059
    33  H    0.003053   0.004546   0.001853
    34  H    0.001465  -0.002380  -0.000044
    35  H    0.008764   0.004028  -0.000841
    36  H    0.001953  -0.000003   0.000085
    37  H    0.445027   0.008126   0.002099
    38  H    0.008126   0.401115   0.000215
    39  H    0.002099   0.000215   0.418089
 Mulliken charges:
               1
     1  Si   1.003729
     2  O   -0.950237
     3  O   -0.832512
     4  O   -0.838414
     5  O   -0.611545
     6  Ca   1.427570
     7  O   -0.560248
     8  O   -0.583595
     9  O   -1.085811
    10  O   -0.622743
    11  H    0.327169
    12  H    0.283339
    13  H    0.295620
    14  H    0.281339
    15  H    0.426807
    16  H    0.298875
    17  H    0.321976
    18  H    0.314950
    19  H    0.294010
    20  H    0.428831
    21  Si   1.200824
    22  O   -0.985091
    23  O   -0.666346
    24  O   -0.847067
    25  O   -0.944658
    26  Ca   1.500690
    27  O   -0.586832
    28  O   -0.562394
    29  O   -1.071827
    30  O   -0.561379
    31  H    0.318367
    32  H    0.302612
    33  H    0.339182
    34  H    0.305719
    35  H    0.332768
    36  H    0.332443
    37  H    0.330324
    38  H    0.306420
    39  H    0.337139
 Sum of Mulliken charges =  -1.00000
 Mulliken charges with hydrogens summed into heavy atoms:
               1
     1  Si   1.003729
     2  O   -0.950237
     3  O   -0.403681
     4  O   -0.411608
     5  O   -0.317536
     6  Ca   1.427570
     7  O    0.016711
     8  O    0.026913
     9  O   -0.786936
    10  O    0.014183
    21  Si   1.200824
    22  O   -0.985091
    23  O   -0.329207
    24  O   -0.514300
    25  O   -0.944658
    26  Ca   1.500690
    27  O    0.058068
    28  O    0.058584
    29  O   -0.739384
    30  O    0.075365
 Electronic spatial extent (au):  <R**2>=          12498.5408
 Charge=             -1.0000 electrons
 Dipole moment (field-independent basis, Debye):
    X=             14.9961    Y=              4.7231    Z=             -7.8586  Tot=             17.5770
 Quadrupole moment (field-independent basis, Debye-Ang):
   XX=           -123.7610   YY=           -149.3624   ZZ=           -159.6745
   XY=            -37.2606   XZ=              3.1673   YZ=            -11.2475
 Traceless Quadrupole moment (field-independent basis, Debye-Ang):
   XX=             20.5050   YY=             -5.0964   ZZ=            -15.4085
   XY=            -37.2606   XZ=              3.1673   YZ=            -11.2475
 Octapole moment (field-independent basis, Debye-Ang**2):
  XXX=            573.8478  YYY=           -124.5320  ZZZ=            290.2804  XYY=            128.3840
  XXY=            187.7475  XXZ=           -132.5431  XZZ=             40.2301  YZZ=            -18.8518
  YYZ=             47.2630  XYZ=             80.2200
 Hexadecapole moment (field-independent basis, Debye-Ang**3):
 XXXX=          -9722.6487 YYYY=          -1562.4268 ZZZZ=          -1869.8115 XXXY=           -505.8221
 XXXZ=           -135.3854 YYYX=            608.4648 YYYZ=            -19.6254 ZZZX=            113.1207
 ZZZY=             64.9479 XXYY=          -1779.6805 XXZZ=          -2026.0545 YYZZ=           -515.7378
 XXYZ=           -171.5302 YYXZ=             91.4872 ZZXY=             81.5903
 N-N= 2.926748287448D+03 E-N=-1.335778351164D+04  KE= 3.143471877983D+03
 ******************************Gaussian NBO Version 3.1******************************
             N A T U R A L   A T O M I C   O R B I T A L   A N D
          N A T U R A L   B O N D   O R B I T A L   A N A L Y S I S
 ******************************Gaussian NBO Version 3.1******************************

       /RESON  / : Allow strongly delocalized NBO set
       /NLMO   / : Form Natural Localized Molecular Orbitals
       /BNDIDX / : Print bond indices based on the NAO density matrix

 Analyzing the SCF density

 Job title: c2sdimerts2nbo                                                  

 Storage needed:   1199716 in NPA,   1596101 in NBO,   1199159 in NLMO (2097143771 available)
 GSVD:  LWork=       45369 too small for GESVD, short by      656453 words or      656453 for optimal perf.


 NATURAL POPULATIONS:  Natural atomic orbital occupancies 
                                                          
   NAO  Atom  No  lang   Type(AO)    Occupancy      Energy
 ----------------------------------------------------------
     1   Si    1  S      Cor( 1S)     2.00000     -65.50404
     2   Si    1  S      Cor( 2S)     1.99958      -6.07813
     3   Si    1  S      Val( 3S)     0.49384       0.02948
     4   Si    1  S      Ryd( 4S)     0.00407       1.44488
     5   Si    1  S      Ryd( 6S)     0.00019       5.86431
     6   Si    1  S      Ryd( 5S)     0.00012       3.76888
     7   Si    1  S      Ryd( 7S)     0.00000     136.01934
     8   Si    1  px     Cor( 2p)     1.99981      -3.72999
     9   Si    1  px     Val( 3p)     0.36595       0.27095
    10   Si    1  px     Ryd( 6p)     0.00635       1.29868
    11   Si    1  px     Ryd( 5p)     0.00038       0.93036
    12   Si    1  px     Ryd( 4p)     0.00054       0.50562
    13   Si    1  px     Ryd( 7p)     0.00001      11.23243
    14   Si    1  py     Cor( 2p)     1.99993      -3.73290
    15   Si    1  py     Val( 3p)     0.36335       0.18954
    16   Si    1  py     Ryd( 6p)     0.00634       1.19062
    17   Si    1  py     Ryd( 5p)     0.00062       0.87172
    18   Si    1  py     Ryd( 4p)     0.00036       0.49879
    19   Si    1  py     Ryd( 7p)     0.00001      11.21317
    20   Si    1  pz     Cor( 2p)     1.99991      -3.73383
    21   Si    1  pz     Val( 3p)     0.36077       0.18763
    22   Si    1  pz     Ryd( 6p)     0.00610       1.18690
    23   Si    1  pz     Ryd( 5p)     0.00079       0.87357
    24   Si    1  pz     Ryd( 4p)     0.00029       0.45341
    25   Si    1  pz     Ryd( 7p)     0.00001      11.19213
    26   Si    1  dxy    Ryd( 3d)     0.00761       1.04864
    27   Si    1  dxz    Ryd( 3d)     0.00729       1.07151
    28   Si    1  dyz    Ryd( 3d)     0.01142       1.28936
    29   Si    1  dx2y2  Ryd( 3d)     0.01545       1.40720
    30   Si    1  dz2    Ryd( 3d)     0.01124       1.38822

    31    O    2  S      Cor( 1S)     1.99976     -18.91050
    32    O    2  S      Val( 2S)     1.81683      -1.00660
    33    O    2  S      Ryd( 3S)     0.00177       0.95464
    34    O    2  S      Ryd( 4S)     0.00045       2.19339
    35    O    2  S      Ryd( 5S)     0.00000      49.92913
    36    O    2  px     Val( 2p)     1.80211      -0.36459
    37    O    2  px     Ryd( 3p)     0.00195       1.15015
    38    O    2  px     Ryd( 4p)     0.00045       1.75084
    39    O    2  px     Ryd( 5p)     0.00006       5.42445
    40    O    2  py     Val( 2p)     1.92933      -0.32679
    41    O    2  py     Ryd( 3p)     0.00249       0.58089
    42    O    2  py     Ryd( 4p)     0.00035       1.42580
    43    O    2  py     Ryd( 5p)     0.00001       5.30022
    44    O    2  pz     Val( 2p)     1.89085      -0.31472
    45    O    2  pz     Ryd( 3p)     0.00194       0.82130
    46    O    2  pz     Ryd( 4p)     0.00027       1.49397
    47    O    2  pz     Ryd( 5p)     0.00001       5.33731
    48    O    2  dxy    Ryd( 3d)     0.00025       3.09121
    49    O    2  dxz    Ryd( 3d)     0.00020       3.20008
    50    O    2  dyz    Ryd( 3d)     0.00005       3.07337
    51    O    2  dx2y2  Ryd( 3d)     0.00088       3.26409
    52    O    2  dz2    Ryd( 3d)     0.00036       3.11576

    53    O    3  S      Cor( 1S)     1.99977     -18.98549
    54    O    3  S      Val( 2S)     1.74786      -1.01898
    55    O    3  S      Ryd( 4S)     0.00317       1.51714
    56    O    3  S      Ryd( 3S)     0.00040       1.24101
    57    O    3  S      Ryd( 5S)     0.00000      49.79272
    58    O    3  px     Val( 2p)     1.65546      -0.33464
    59    O    3  px     Ryd( 3p)     0.00243       0.83274
    60    O    3  px     Ryd( 4p)     0.00050       1.13520
    61    O    3  px     Ryd( 5p)     0.00005       5.45145
    62    O    3  py     Val( 2p)     1.93315      -0.37107
    63    O    3  py     Ryd( 3p)     0.00110       0.67771
    64    O    3  py     Ryd( 4p)     0.00034       1.14832
    65    O    3  py     Ryd( 5p)     0.00001       5.18245
    66    O    3  pz     Val( 2p)     1.78525      -0.38957
    67    O    3  pz     Ryd( 3p)     0.00138       0.81399
    68    O    3  pz     Ryd( 4p)     0.00067       1.13320
    69    O    3  pz     Ryd( 5p)     0.00003       5.20732
    70    O    3  dxy    Ryd( 3d)     0.00034       3.12659
    71    O    3  dxz    Ryd( 3d)     0.00044       3.22044
    72    O    3  dyz    Ryd( 3d)     0.00022       3.03258
    73    O    3  dx2y2  Ryd( 3d)     0.00104       3.47861
    74    O    3  dz2    Ryd( 3d)     0.00120       3.28727

    75    O    4  S      Cor( 1S)     1.99976     -18.95935
    76    O    4  S      Val( 2S)     1.74508      -1.01099
    77    O    4  S      Ryd( 4S)     0.00221       1.55022
    78    O    4  S      Ryd( 3S)     0.00056       1.24322
    79    O    4  S      Ryd( 5S)     0.00000      49.80893
    80    O    4  px     Val( 2p)     1.78273      -0.34417
    81    O    4  px     Ryd( 3p)     0.00128       0.81735
    82    O    4  px     Ryd( 4p)     0.00046       1.24620
    83    O    4  px     Ryd( 5p)     0.00006       5.38996
    84    O    4  py     Val( 2p)     1.72124      -0.36562
    85    O    4  py     Ryd( 3p)     0.00179       0.81321
    86    O    4  py     Ryd( 4p)     0.00069       1.23483
    87    O    4  py     Ryd( 5p)     0.00003       5.29726
    88    O    4  pz     Val( 2p)     1.92130      -0.36234
    89    O    4  pz     Ryd( 3p)     0.00105       0.52373
    90    O    4  pz     Ryd( 4p)     0.00031       1.20324
    91    O    4  pz     Ryd( 5p)     0.00002       5.16639
    92    O    4  dxy    Ryd( 3d)     0.00096       3.46203
    93    O    4  dxz    Ryd( 3d)     0.00055       3.10539
    94    O    4  dyz    Ryd( 3d)     0.00056       3.15070
    95    O    4  dx2y2  Ryd( 3d)     0.00068       3.22927
    96    O    4  dz2    Ryd( 3d)     0.00059       3.20590

    97    O    5  S      Cor( 1S)     1.99981     -18.95556
    98    O    5  S      Val( 2S)     1.75662      -1.02284
    99    O    5  S      Ryd( 4S)     0.00145       1.89085
   100    O    5  S      Ryd( 3S)     0.00046       1.07397
   101    O    5  S      Ryd( 5S)     0.00000      49.88527
   102    O    5  px     Val( 2p)     1.67545      -0.31771
   103    O    5  px     Ryd( 3p)     0.00125       0.98893
   104    O    5  px     Ryd( 4p)     0.00048       0.99948
   105    O    5  px     Ryd( 5p)     0.00006       5.30253
   106    O    5  py     Val( 2p)     1.81139      -0.36794
   107    O    5  py     Ryd( 3p)     0.00107       0.83610
   108    O    5  py     Ryd( 4p)     0.00032       0.92895
   109    O    5  py     Ryd( 5p)     0.00001       5.11793
   110    O    5  pz     Val( 2p)     1.86270      -0.36082
   111    O    5  pz     Ryd( 3p)     0.00087       0.82076
   112    O    5  pz     Ryd( 4p)     0.00025       0.90547
   113    O    5  pz     Ryd( 5p)     0.00001       5.09622
   114    O    5  dxy    Ryd( 3d)     0.00087       3.22361
   115    O    5  dxz    Ryd( 3d)     0.00078       3.18100
   116    O    5  dyz    Ryd( 3d)     0.00071       3.19220
   117    O    5  dx2y2  Ryd( 3d)     0.00126       3.40871
   118    O    5  dz2    Ryd( 3d)     0.00051       3.15677

   119   Ca    6  S      Cor( 1S)     2.00000    -140.16399
   120   Ca    6  S      Cor( 2S)     2.00000     -20.21062
   121   Ca    6  S      Cor( 3S)     1.99831      -2.34326
   122   Ca    6  S      Val( 4S)     0.05848       0.39983
   123   Ca    6  S      Ryd( 6S)     0.00021       0.90501
   124   Ca    6  S      Ryd( 7S)     0.00015       1.06329
   125   Ca    6  S      Ryd( 5S)     0.00005       0.56164
   126   Ca    6  S      Ryd( 8S)     0.00000      29.25832
   127   Ca    6  S      Ryd( 9S)     0.00000     301.68832
   128   Ca    6  px     Cor( 2p)     2.00000     -12.56658
   129   Ca    6  px     Cor( 3p)     1.99871      -1.08419
   130   Ca    6  px     Ryd( 7p)     0.00030       1.34100
   131   Ca    6  px     Ryd( 4p)     0.00011       0.31178
   132   Ca    6  px     Ryd( 6p)     0.00013       0.85082
   133   Ca    6  px     Ryd( 5p)     0.00005       0.61046
   134   Ca    6  px     Ryd( 8p)     0.00002       5.56859
   135   Ca    6  px     Ryd( 9p)     0.00000     106.88202
   136   Ca    6  py     Cor( 2p)     2.00000     -12.56639
   137   Ca    6  py     Cor( 3p)     1.99872      -1.08122
   138   Ca    6  py     Ryd( 7p)     0.00036       1.02383
   139   Ca    6  py     Ryd( 4p)     0.00026       0.34911
   140   Ca    6  py     Ryd( 6p)     0.00014       0.84608
   141   Ca    6  py     Ryd( 5p)     0.00003       0.61194
   142   Ca    6  py     Ryd( 8p)     0.00002       5.57673
   143   Ca    6  py     Ryd( 9p)     0.00000     106.88224
   144   Ca    6  pz     Cor( 2p)     2.00000     -12.56655
   145   Ca    6  pz     Cor( 3p)     1.99874      -1.08365
   146   Ca    6  pz     Ryd( 7p)     0.00078       0.78321
   147   Ca    6  pz     Ryd( 4p)     0.00018       0.33669
   148   Ca    6  pz     Ryd( 6p)     0.00012       0.77312
   149   Ca    6  pz     Ryd( 5p)     0.00003       0.61217
   150   Ca    6  pz     Ryd( 8p)     0.00002       5.55499
   151   Ca    6  pz     Ryd( 9p)     0.00000     106.88109
   152   Ca    6  dxy    Ryd( 3d)     0.01523       0.25234
   153   Ca    6  dxy    Ryd( 4d)     0.00010       1.43369
   154   Ca    6  dxz    Ryd( 3d)     0.00973       0.25819
   155   Ca    6  dxz    Ryd( 4d)     0.00009       1.46825
   156   Ca    6  dyz    Ryd( 3d)     0.01196       0.26180
   157   Ca    6  dyz    Ryd( 4d)     0.00014       1.45392
   158   Ca    6  dx2y2  Ryd( 3d)     0.00747       0.24963
   159   Ca    6  dx2y2  Ryd( 4d)     0.00007       1.40301
   160   Ca    6  dz2    Ryd( 3d)     0.00919       0.24875
   161   Ca    6  dz2    Ryd( 4d)     0.00013       1.38372

   162    O    7  S      Cor( 1S)     1.99982     -19.00312
   163    O    7  S      Val( 2S)     1.74720      -1.02078
   164    O    7  S      Ryd( 4S)     0.00058       1.76492
   165    O    7  S      Ryd( 3S)     0.00024       0.96410
   166    O    7  S      Ryd( 5S)     0.00000      49.80931
   167    O    7  px     Val( 2p)     1.78235      -0.36570
   168    O    7  px     Ryd( 3p)     0.00027       0.72860
   169    O    7  px     Ryd( 4p)     0.00020       0.83022
   170    O    7  px     Ryd( 5p)     0.00005       5.24678
   171    O    7  py     Val( 2p)     1.98272      -0.39099
   172    O    7  py     Ryd( 3p)     0.00231       0.74009
   173    O    7  py     Ryd( 4p)     0.00011       0.85657
   174    O    7  py     Ryd( 5p)     0.00000       5.13579
   175    O    7  pz     Val( 2p)     1.51764      -0.31517
   176    O    7  pz     Ryd( 4p)     0.00331       0.82228
   177    O    7  pz     Ryd( 3p)     0.00007       0.80269
   178    O    7  pz     Ryd( 5p)     0.00001       5.41239
   179    O    7  dxy    Ryd( 3d)     0.00073       3.05307
   180    O    7  dxz    Ryd( 3d)     0.00144       3.70026
   181    O    7  dyz    Ryd( 3d)     0.00008       3.09492
   182    O    7  dx2y2  Ryd( 3d)     0.00116       3.25403
   183    O    7  dz2    Ryd( 3d)     0.00055       3.42684

   184    O    8  S      Cor( 1S)     1.99982     -19.00817
   185    O    8  S      Val( 2S)     1.74668      -1.02548
   186    O    8  S      Ryd( 4S)     0.00058       1.81576
   187    O    8  S      Ryd( 3S)     0.00023       0.93416
   188    O    8  S      Ryd( 5S)     0.00000      49.80796
   189    O    8  px     Val( 2p)     1.76894      -0.36981
   190    O    8  px     Ryd( 3p)     0.00063       0.70416
   191    O    8  px     Ryd( 4p)     0.00018       0.85002
   192    O    8  px     Ryd( 5p)     0.00004       5.24896
   193    O    8  py     Val( 2p)     1.82729      -0.36743
   194    O    8  py     Ryd( 3p)     0.00233       0.75477
   195    O    8  py     Ryd( 4p)     0.00012       0.83121
   196    O    8  py     Ryd( 5p)     0.00000       5.18855
   197    O    8  pz     Val( 2p)     1.69221      -0.35151
   198    O    8  pz     Ryd( 3p)     0.00247       0.81498
   199    O    8  pz     Ryd( 4p)     0.00012       0.85996
   200    O    8  pz     Ryd( 5p)     0.00001       5.32221
   201    O    8  dxy    Ryd( 3d)     0.00069       3.20728
   202    O    8  dxz    Ryd( 3d)     0.00066       3.23051
   203    O    8  dyz    Ryd( 3d)     0.00082       3.45681
   204    O    8  dx2y2  Ryd( 3d)     0.00100       3.30375
   205    O    8  dz2    Ryd( 3d)     0.00066       3.29706

   206    O    9  S      Cor( 1S)     1.99987     -18.97221
   207    O    9  S      Val( 2S)     1.83369      -0.98590
   208    O    9  S      Ryd( 3S)     0.00075       1.28174
   209    O    9  S      Ryd( 4S)     0.00028       1.46427
   210    O    9  S      Ryd( 5S)     0.00000      49.84711
   211    O    9  px     Val( 2p)     1.94639      -0.32782
   212    O    9  px     Ryd( 4p)     0.00034       1.14029
   213    O    9  px     Ryd( 3p)     0.00023       0.79476
   214    O    9  px     Ryd( 5p)     0.00000       5.18887
   215    O    9  py     Val( 2p)     1.60210      -0.27230
   216    O    9  py     Ryd( 4p)     0.00095       1.27751
   217    O    9  py     Ryd( 3p)     0.00032       0.90514
   218    O    9  py     Ryd( 5p)     0.00002       5.46695
   219    O    9  pz     Val( 2p)     1.97871      -0.33458
   220    O    9  pz     Ryd( 4p)     0.00012       1.06922
   221    O    9  pz     Ryd( 3p)     0.00028       0.66112
   222    O    9  pz     Ryd( 5p)     0.00000       5.15595
   223    O    9  dxy    Ryd( 3d)     0.00041       3.24975
   224    O    9  dxz    Ryd( 3d)     0.00004       3.03088
   225    O    9  dyz    Ryd( 3d)     0.00031       3.16510
   226    O    9  dx2y2  Ryd( 3d)     0.00105       3.45990
   227    O    9  dz2    Ryd( 3d)     0.00040       3.19336

   228    O   10  S      Cor( 1S)     1.99981     -19.02686
   229    O   10  S      Val( 2S)     1.73651      -1.03872
   230    O   10  S      Ryd( 4S)     0.00057       1.83371
   231    O   10  S      Ryd( 3S)     0.00040       0.93089
   232    O   10  S      Ryd( 5S)     0.00000      49.77141
   233    O   10  px     Val( 2p)     1.78490      -0.39403
   234    O   10  px     Ryd( 3p)     0.00067       0.75809
   235    O   10  px     Ryd( 4p)     0.00021       0.93706
   236    O   10  px     Ryd( 5p)     0.00004       5.30894
   237    O   10  py     Val( 2p)     1.64918      -0.35903
   238    O   10  py     Ryd( 3p)     0.00280       0.81131
   239    O   10  py     Ryd( 4p)     0.00020       0.85490
   240    O   10  py     Ryd( 5p)     0.00001       5.34453
   241    O   10  pz     Val( 2p)     1.86596      -0.39620
   242    O   10  pz     Ryd( 3p)     0.00166       0.72705
   243    O   10  pz     Ryd( 4p)     0.00022       0.85378
   244    O   10  pz     Ryd( 5p)     0.00001       5.21804
   245    O   10  dxy    Ryd( 3d)     0.00127       3.55662
   246    O   10  dxz    Ryd( 3d)     0.00077       3.20820
   247    O   10  dyz    Ryd( 3d)     0.00053       3.36799
   248    O   10  dx2y2  Ryd( 3d)     0.00049       3.16330
   249    O   10  dz2    Ryd( 3d)     0.00045       3.15382

   250    H   11  S      Val( 1S)     0.48613       0.18296
   251    H   11  S      Ryd( 4S)     0.00309       1.92789
   252    H   11  S      Ryd( 2S)     0.00028       0.51254
   253    H   11  S      Ryd( 3S)     0.00023       1.17604
   254    H   11  px     Ryd( 2p)     0.00108       2.52685
   255    H   11  py     Ryd( 2p)     0.00094       1.83278
   256    H   11  pz     Ryd( 2p)     0.00070       1.97343

   257    H   12  S      Val( 1S)     0.52141       0.19702
   258    H   12  S      Ryd( 4S)     0.00067       1.66101
   259    H   12  S      Ryd( 2S)     0.00025       0.38826
   260    H   12  S      Ryd( 3S)     0.00022       1.11240
   261    H   12  px     Ryd( 2p)     0.00112       1.71097
   262    H   12  py     Ryd( 2p)     0.00111       1.95606
   263    H   12  pz     Ryd( 2p)     0.00073       2.41792

   264    H   13  S      Val( 1S)     0.48932       0.18676
   265    H   13  S      Ryd( 4S)     0.00330       1.87547
   266    H   13  S      Ryd( 2S)     0.00036       0.49503
   267    H   13  S      Ryd( 3S)     0.00031       1.23196
   268    H   13  px     Ryd( 2p)     0.00095       2.29085
   269    H   13  py     Ryd( 2p)     0.00099       1.78942
   270    H   13  pz     Ryd( 2p)     0.00089       2.28233

   271    H   14  S      Val( 1S)     0.52360       0.19882
   272    H   14  S      Ryd( 4S)     0.00060       1.61131
   273    H   14  S      Ryd( 3S)     0.00039       1.07176
   274    H   14  S      Ryd( 2S)     0.00016       0.54632
   275    H   14  px     Ryd( 2p)     0.00113       1.87392
   276    H   14  py     Ryd( 2p)     0.00138       1.67970
   277    H   14  pz     Ryd( 2p)     0.00057       2.56648

   278    H   15  S      Val( 1S)     0.47088       0.25600
   279    H   15  S      Ryd( 4S)     0.00336       1.92200
   280    H   15  S      Ryd( 2S)     0.00045       0.67385
   281    H   15  S      Ryd( 3S)     0.00014       1.12932
   282    H   15  px     Ryd( 2p)     0.00077       2.41933
   283    H   15  py     Ryd( 2p)     0.00068       2.24097
   284    H   15  pz     Ryd( 2p)     0.00073       1.77605

   285    H   16  S      Val( 1S)     0.54615       0.24914
   286    H   16  S      Ryd( 4S)     0.00079       2.07702
   287    H   16  S      Ryd( 3S)     0.00022       0.60803
   288    H   16  S      Ryd( 2S)     0.00007       0.50977
   289    H   16  px     Ryd( 2p)     0.00092       1.75866
   290    H   16  py     Ryd( 2p)     0.00039       2.73024
   291    H   16  pz     Ryd( 2p)     0.00110       1.68954

   292    H   17  S      Val( 1S)     0.47636       0.19003
   293    H   17  S      Ryd( 4S)     0.00289       1.74911
   294    H   17  S      Ryd( 2S)     0.00030       0.78427
   295    H   17  S      Ryd( 3S)     0.00025       1.16807
   296    H   17  px     Ryd( 2p)     0.00070       2.25832
   297    H   17  py     Ryd( 2p)     0.00087       2.17511
   298    H   17  pz     Ryd( 2p)     0.00087       1.91305

   299    H   18  S      Val( 1S)     0.50951       0.19423
   300    H   18  S      Ryd( 4S)     0.00068       1.64802
   301    H   18  S      Ryd( 3S)     0.00029       1.14495
   302    H   18  S      Ryd( 2S)     0.00014       0.41099
   303    H   18  px     Ryd( 2p)     0.00088       1.91650
   304    H   18  py     Ryd( 2p)     0.00071       2.26331
   305    H   18  pz     Ryd( 2p)     0.00110       1.90115

   306    H   19  S      Val( 1S)     0.51351       0.23790
   307    H   19  S      Ryd( 4S)     0.00119       1.93290
   308    H   19  S      Ryd( 3S)     0.00058       0.83638
   309    H   19  S      Ryd( 2S)     0.00034       0.67830
   310    H   19  px     Ryd( 2p)     0.00080       2.60826
   311    H   19  py     Ryd( 2p)     0.00100       1.91517
   312    H   19  pz     Ryd( 2p)     0.00118       1.82238

   313    H   20  S      Val( 1S)     0.49135       0.24453
   314    H   20  S      Ryd( 4S)     0.00167       1.79473
   315    H   20  S      Ryd( 2S)     0.00038       0.54595
   316    H   20  S      Ryd( 3S)     0.00016       1.57724
   317    H   20  px     Ryd( 2p)     0.00090       2.74373
   318    H   20  py     Ryd( 2p)     0.00088       1.79260
   319    H   20  pz     Ryd( 2p)     0.00051       1.94501

   320   Si   21  S      Cor( 1S)     2.00000     -65.45027
   321   Si   21  S      Cor( 2S)     1.99955      -6.08729
   322   Si   21  S      Val( 3S)     0.48374       0.09441
   323   Si   21  S      Ryd( 5S)     0.00307       0.95588
   324   Si   21  S      Ryd( 6S)     0.00039      10.42717
   325   Si   21  S      Ryd( 4S)     0.00031       0.60316
   326   Si   21  S      Ryd( 7S)     0.00000     135.90222
   327   Si   21  px     Cor( 2p)     1.99987      -3.71906
   328   Si   21  px     Val( 3p)     0.34889       0.20686
   329   Si   21  px     Ryd( 6p)     0.00686       1.13511
   330   Si   21  px     Ryd( 5p)     0.00058       0.89926
   331   Si   21  px     Ryd( 4p)     0.00052       0.69160
   332   Si   21  px     Ryd( 7p)     0.00000      11.54425
   333   Si   21  py     Cor( 2p)     1.99987      -3.72225
   334   Si   21  py     Val( 3p)     0.34171       0.18703
   335   Si   21  py     Ryd( 6p)     0.00702       1.06799
   336   Si   21  py     Ryd( 5p)     0.00063       0.84029
   337   Si   21  py     Ryd( 4p)     0.00041       0.50932
   338   Si   21  py     Ryd( 7p)     0.00001      11.48223
   339   Si   21  pz     Cor( 2p)     1.99991      -3.72308
   340   Si   21  pz     Val( 3p)     0.35479       0.17775
   341   Si   21  pz     Ryd( 6p)     0.00557       1.07009
   342   Si   21  pz     Ryd( 5p)     0.00040       0.93420
   343   Si   21  pz     Ryd( 4p)     0.00042       0.46850
   344   Si   21  pz     Ryd( 7p)     0.00000      11.46207
   345   Si   21  dxy    Ryd( 3d)     0.00971       1.04861
   346   Si   21  dxz    Ryd( 3d)     0.00943       0.93853
   347   Si   21  dyz    Ryd( 3d)     0.00776       0.87404
   348   Si   21  dx2y2  Ryd( 3d)     0.01199       1.05787
   349   Si   21  dz2    Ryd( 3d)     0.01258       1.10554

   350    O   22  S      Cor( 1S)     1.99975     -18.93393
   351    O   22  S      Val( 2S)     1.82614      -1.05954
   352    O   22  S      Ryd( 3S)     0.00078       1.19150
   353    O   22  S      Ryd( 4S)     0.00030       2.11741
   354    O   22  S      Ryd( 5S)     0.00000      49.84908
   355    O   22  px     Val( 2p)     1.82250      -0.39613
   356    O   22  px     Ryd( 3p)     0.00046       0.96568
[...]
                                                    452(r),619(r),621(r),453(r)
                                                    622(r)
   110. LP (   2) O  30                  1.98166    -0.60583  101(r),449(r),586(v),593(v)
                                                    479(r),450(r),594(v),455(r)
                                                    588(v),477(r),469(r),452(r)
                                                    465(r),460(r),453(r),459(r)
                                                    457(r),476(r),516(r),468(r)
                                                    466(r),503(r),500(r),478(r)
                                                    629(r),481(r),517(r),519(r)
                                                    467(r),462(r),622(r),502(r)
                                                    458(r)
   533. RY*(   1) O  30                  0.00082     0.79486   
   534. RY*(   2) O  30                  0.00049     1.09649   
   535. RY*(   3) O  30                  0.00028     1.01278   
   536. RY*(   4) O  30                  0.00018     1.32251   
   537. RY*(   5) O  30                  0.00014     0.89946   
   538. RY*(   6) O  30                  0.00007     0.78431   
   539. RY*(   7) O  30                  0.00004     1.11857   
   540. RY*(   8) O  30                  0.00001     1.26895   
   541. RY*(   9) O  30                  0.00000     5.19828   
   542. RY*(  10) O  30                  0.00000    49.83452   
   543. RY*(  11) O  30                  0.00000     5.07192   
   544. RY*(  12) O  30                  0.00000     5.05436   
   545. RY*(  13) O  30                  0.00000     3.01562   
   546. RY*(  14) O  30                  0.00000     3.02362   
   547. RY*(  15) O  30                  0.00000     3.12945   
   548. RY*(  16) O  30                  0.00000     3.58349   
   549. RY*(  17) O  30                  0.00000     3.22305   
   586. RY*(   1) H  37                  0.00232     1.56694   
   587. RY*(   2) H  37                  0.00132     1.59758   
   588. RY*(   3) H  37                  0.00066     1.65655   
   589. RY*(   4) H  37                  0.00040     1.58379   
   590. RY*(   5) H  37                  0.00013     0.76616   
   591. RY*(   6) H  37                  0.00003     2.51286   
   592. RY*(   1) H  38                  0.00149     1.58556   
   593. RY*(   2) H  38                  0.00088     1.58697   
   594. RY*(   3) H  38                  0.00057     1.65657   
   595. RY*(   4) H  38                  0.00030     1.08119   
   596. RY*(   5) H  38                  0.00007     0.57999   
   597. RY*(   6) H  38                  0.00001     2.67335   
   630. BD*(   1) O  30 - H  37          0.03042     0.51649   
   631. BD*(   1) O  30 - H  38          0.00125     0.54633   
       -------------------------------
              Total Lewis    9.97254  ( 99.5815%)
        Valence non-Lewis    0.03167  (  0.3162%)
        Rydberg non-Lewis    0.01024  (  0.1023%)
       -------------------------------
            Total unit 11   10.01445  (100.0000%)
           Charge unit 11   -0.01445


 NATURAL LOCALIZED MOLECULAR ORBITAL (NLMO) ANALYSIS:

 Highest occupied NBOs are not at the beginning of the NBO list;
 The NLMO program is not currently set up to handle this.
 Sorting of NBOs:                   38   60   29   51   61   39   72   70   69   50
 Sorting of NBOs:                   48   47   35   71   58   49   57   36   37   56
 Sorting of NBOs:                   59   34   63   65   67   41   45   43   52   30
 Sorting of NBOs:                   33   32   31   55   54   53   40   62   66   64
 Sorting of NBOs:                   68   42   46   44   16   19   27   14   24   22
 Sorting of NBOs:                   17   28   23   25   15   18   11    9   12   10
 Sorting of NBOs:                    6   21    1    4    3   20    7    2    8   26
 Sorting of NBOs:                   13   92  107    5   83   88   80   85   74   95
 Sorting of NBOs:                   91   97  104  110  102   78  109  103  105   76
 Sorting of NBOs:                   99   90  108   89   86   77   84   73   98   79
 Sorting of NBOs:                   87   96   93   81  100  106   94   75  470  201
 Sorting of NBOs:                  451  202  200  199  478  453  452  203  450  449
 Sorting of NBOs:                  621  620   82  101  219  622  619  606  605  614
 Sorting of NBOs:                  612  607  617  627  625  630  624  465  584  631
 Sorting of NBOs:                  628  626  618  615  623  322  613  572  596  610
 Sorting of NBOs:                  609  560  611  124  310  131  218  483  463  398
 Sorting of NBOs:                  333  629  334  120  616  250  400  232  149  499
 Sorting of NBOs:                  186  207  151  214  283  416  608  462  415  516
 Sorting of NBOs:                  204  267  346  167  554  150  583  206  566  208
 Sorting of NBOs:                  590  374  399  604  538  119  533  249  433  482
 Sorting of NBOs:                  233  234  458  373  454  266  460  210  183  457
 Sorting of NBOs:                  369  166  363  287  285  476  212  364  537  372
 Sorting of NBOs:                  461  500  455  211  340  504  385  502  253  484
 Sorting of NBOs:                  132  517  578  362  268  185  381  213  360  205
 Sorting of NBOs:                  351  286  361  239  602  468  459  304  209  505
 Sorting of NBOs:                  485  231  535  571  559  216  401  236  113  168
 Sorting of NBOs:                  223  284  518  595  382  417  534  134  169  112
 Sorting of NBOs:                  539  464  370  133  321  115  456  217  487  383
 Sorting of NBOs:                  434  229  365  328  418  111  237  114  345  486
 Sorting of NBOs:                  309  503  367  521  488  553  366  540  121  466
 Sorting of NBOs:                  215  327  288  269  225  270  252  290  565  536
 Sorting of NBOs:                  519  122  481  316  165  352  357  599  432  501
 Sorting of NBOs:                  259  153  375  123  325  152  251  116  435  187
 Sorting of NBOs:                  313  255  344  509  273  350  117  575  235  301
 Sorting of NBOs:                  308  189  184  358  118  563  317  170  551  148
 Sorting of NBOs:                  254  355  137  318  289  368  371  305  586  492
 Sorting of NBOs:                  306  589  592  593  404  556  587  568  386  405
 Sorting of NBOs:                  188  557  342  438  569  588  594  319  173  580
 Sorting of NBOs:                  348  182  436  136  337  307  272  330  522  582
 Sorting of NBOs:                  570  600  388  523  271  356  320  154  331  315
 Sorting of NBOs:                  423  576  343  155  439  558  520  354  336  552
 Sorting of NBOs:                  564  341  326  601  303  338  171  598  312  437
 Sorting of NBOs:                  324  419  339  403  387  384  402  577  300  550
 Sorting of NBOs:                  562  314  469  349  581  579  302  332  574  135
 Sorting of NBOs:                  420  603  138  353  125  422  248  238  567  555
 Sorting of NBOs:                  425  359  467  347  329  280  591  561  573  335
 Sorting of NBOs:                  262  311  597  323  585  421  196  278  440  528
 Sorting of NBOs:                  172  198  157  529  406  494  442  246  531  495
 Sorting of NBOs:                  389  496  244  298  532  261  512  299  444  265
 Sorting of NBOs:                  279  514  426  140  144  391  545  513  546  407
 Sorting of NBOs:                  156  139  147  414  197  141  296  282  263  264
 Sorting of NBOs:                  547  424  174  158  297  191  411  515  549  392
 Sorting of NBOs:                  498  190  247  390  177  175  530  160  408  394
 Sorting of NBOs:                  161  281  511  441  295  443  245  427  548  497
 Sorting of NBOs:                  176  473  448  410  181  179  430  395  446  194
 Sorting of NBOs:                  397  526  258  510  192  193  493  393  180  429
 Sorting of NBOs:                  409  163  544  413  543  491  428  240  242  447
 Sorting of NBOs:                  126  220  146  508  276  159  277  527  480  162
 Sorting of NBOs:                  294  257  293  541  507  475  143  142  291  524
 Sorting of NBOs:                  260  490  243  274  224  228  376  127  130  129
 Sorting of NBOs:                  378  379  380  479  230  164  178  431  412  489
 Sorting of NBOs:                  396  506  445  525  542  195  256  292  275  241
 Sorting of NBOs:                  145  474  226  471  227  221  472  128  377  222
 Sorting of NBOs:                  477
 Reordering of NBOs for storage:    38   60   29   51   61   39   72   70   69   50
 Reordering of NBOs for storage:    48   47   35   71   58   49   57   36   37   56
 Reordering of NBOs for storage:    59   34   63   65   67   41   45   43   52   30
 Reordering of NBOs for storage:    33   32   31   55   54   53   40   62   66   64
 Reordering of NBOs for storage:    68   42   46   44   16   19   27   14   24   22
 Reordering of NBOs for storage:    17   28   23   25   15   18   11    9   12   10
 Reordering of NBOs for storage:     6   21    1    4    3   20    7    2    8   26
 Reordering of NBOs for storage:    13   92  107    5   83   88   80   85   74   95
 Reordering of NBOs for storage:    91   97  104  110  102   78  109  103  105   76
 Reordering of NBOs for storage:    99   90  108   89   86   77   84   73   98   79
 Reordering of NBOs for storage:    87   96   93   81  100  106   94   75  621  620
 Reordering of NBOs for storage:    82  101  622  619  606  605  614  612  607  617
 Reordering of NBOs for storage:   627  625  630  624  631  628  626  618  615  623
 Reordering of NBOs for storage:   613  610  609  611  629  616  608  604  470  201
 Reordering of NBOs for storage:   451  202  200  199  478  453  452  203  450  449
 Reordering of NBOs for storage:   219  465  584  322  572  596  560  124  310  131
 Reordering of NBOs for storage:   218  483  463  398  333  334  120  250  400  232
 Reordering of NBOs for storage:   149  499  186  207  151  214  283  416  462  415
 Reordering of NBOs for storage:   516  204  267  346  167  554  150  583  206  566
 Reordering of NBOs for storage:   208  590  374  399  538  119  533  249  433  482
 Reordering of NBOs for storage:   233  234  458  373  454  266  460  210  183  457
 Reordering of NBOs for storage:   369  166  363  287  285  476  212  364  537  372
 Reordering of NBOs for storage:   461  500  455  211  340  504  385  502  253  484
 Reordering of NBOs for storage:   132  517  578  362  268  185  381  213  360  205
 Reordering of NBOs for storage:   351  286  361  239  602  468  459  304  209  505
 Reordering of NBOs for storage:   485  231  535  571  559  216  401  236  113  168
 Reordering of NBOs for storage:   223  284  518  595  382  417  534  134  169  112
 Reordering of NBOs for storage:   539  464  370  133  321  115  456  217  487  383
 Reordering of NBOs for storage:   434  229  365  328  418  111  237  114  345  486
 Reordering of NBOs for storage:   309  503  367  521  488  553  366  540  121  466
 Reordering of NBOs for storage:   215  327  288  269  225  270  252  290  565  536
 Reordering of NBOs for storage:   519  122  481  316  165  352  357  599  432  501
 Reordering of NBOs for storage:   259  153  375  123  325  152  251  116  435  187
 Reordering of NBOs for storage:   313  255  344  509  273  350  117  575  235  301
 Reordering of NBOs for storage:   308  189  184  358  118  563  317  170  551  148
 Reordering of NBOs for storage:   254  355  137  318  289  368  371  305  586  492
 Reordering of NBOs for storage:   306  589  592  593  404  556  587  568  386  405
 Reordering of NBOs for storage:   188  557  342  438  569  588  594  319  173  580
 Reordering of NBOs for storage:   348  182  436  136  337  307  272  330  522  582
 Reordering of NBOs for storage:   570  600  388  523  271  356  320  154  331  315
 Reordering of NBOs for storage:   423  576  343  155  439  558  520  354  336  552
 Reordering of NBOs for storage:   564  341  326  601  303  338  171  598  312  437
 Reordering of NBOs for storage:   324  419  339  403  387  384  402  577  300  550
 Reordering of NBOs for storage:   562  314  469  349  581  579  302  332  574  135
 Reordering of NBOs for storage:   420  603  138  353  125  422  248  238  567  555
 Reordering of NBOs for storage:   425  359  467  347  329  280  591  561  573  335
 Reordering of NBOs for storage:   262  311  597  323  585  421  196  278  440  528
 Reordering of NBOs for storage:   172  198  157  529  406  494  442  246  531  495
 Reordering of NBOs for storage:   389  496  244  298  532  261  512  299  444  265
 Reordering of NBOs for storage:   279  514  426  140  144  391  545  513  546  407
 Reordering of NBOs for storage:   156  139  147  414  197  141  296  282  263  264
 Reordering of NBOs for storage:   547  424  174  158  297  191  411  515  549  392
 Reordering of NBOs for storage:   498  190  247  390  177  175  530  160  408  394
 Reordering of NBOs for storage:   161  281  511  441  295  443  245  427  548  497
 Reordering of NBOs for storage:   176  473  448  410  181  179  430  395  446  194
 Reordering of NBOs for storage:   397  526  258  510  192  193  493  393  180  429
 Reordering of NBOs for storage:   409  163  544  413  543  491  428  240  242  447
 Reordering of NBOs for storage:   126  220  146  508  276  159  277  527  480  162
 Reordering of NBOs for storage:   294  257  293  541  507  475  143  142  291  524
 Reordering of NBOs for storage:   260  490  243  274  224  228  376  127  130  129
 Reordering of NBOs for storage:   378  379  380  479  230  164  178  431  412  489
 Reordering of NBOs for storage:   396  506  445  525  542  195  256  292  275  241
 Reordering of NBOs for storage:   145  474  226  471  227  221  472  128  377  222
 Reordering of NBOs for storage:   477
 Labels of output orbitals:  CR  CR  CR  CR  CR  CR  CR  CR  CR  CR  CR  CR  CR  CR  CR  CR  CR  CR  CR  CR  
 Labels of output orbitals:  CR  CR  CR  CR  CR  CR  CR  CR  CR  CR  CR  CR  CR  CR  CR  CR  CR  CR  CR  CR  
 Labels of output orbitals:  CR  CR  CR  CR  BD  BD  BD  BD  BD  BD  BD  BD  BD  BD  BD  BD  BD  BD  BD  BD  
 Labels of output orbitals:  BD  BD  BD  BD  BD  BD  BD  BD  BD  BD  BD  LP  LP  BD  LP  LP  LP  LP  LP  LP  
 Labels of output orbitals:  LP  LP  LP  LP  LP  LP  LP  LP  LP  LP  LP  LP  LP  LP  LP  LP  LP  LP  LP  LP  
 Labels of output orbitals:  LP  LP  LP  LP  LP  LP  LP  LP  BD* BD* LP* LP* BD* BD* BD* BD* BD* BD* BD* BD* 
 Labels of output orbitals:  BD* BD* BD* BD* BD* BD* BD* BD* BD* BD* BD* BD* BD* BD* BD* BD* BD* BD* RY* RY* 
 Labels of output orbitals:  RY* RY* RY* RY* RY* RY* RY* RY* RY* RY* RY* RY* RY* RY* RY* RY* RY* RY* RY* RY* 
 Labels of output orbitals:  RY* RY* RY* RY* RY* RY* RY* RY* RY* RY* RY* RY* RY* RY* RY* RY* RY* RY* RY* RY* 
 Labels of output orbitals:  RY* RY* RY* RY* RY* RY* RY* RY* RY* RY* RY* RY* RY* RY* RY* RY* RY* RY* RY* RY* 
 Labels of output orbitals:  RY* RY* RY* RY* RY* RY* RY* RY* RY* RY* RY* RY* RY* RY* RY* RY* RY* RY* RY* RY* 
 Labels of output orbitals:  RY* RY* RY* RY* RY* RY* RY* RY* RY* RY* RY* RY* RY* RY* RY* RY* RY* RY* RY* RY* 
 Labels of output orbitals:  RY* RY* RY* RY* RY* RY* RY* RY* RY* RY* RY* RY* RY* RY* RY* RY* RY* RY* RY* RY* 
 Labels of output orbitals:  RY* RY* RY* RY* RY* RY* RY* RY* RY* RY* RY* RY* RY* RY* RY* RY* RY* RY* RY* RY* 
 Labels of output orbitals:  RY* RY* RY* RY* RY* RY* RY* RY* RY* RY* RY* RY* RY* RY* RY* RY* RY* RY* RY* RY* 
 Labels of output orbitals:  RY* RY* RY* RY* RY* RY* RY* RY* RY* RY* RY* RY* RY* RY* RY* RY* RY* RY* RY* RY* 
 Labels of output orbitals:  RY* RY* RY* RY* RY* RY* RY* RY* RY* RY* RY* RY* RY* RY* RY* RY* RY* RY* RY* RY* 
 Labels of output orbitals:  RY* RY* RY* RY* RY* RY* RY* RY* RY* RY* RY* RY* RY* RY* RY* RY* RY* RY* RY* RY* 
 Labels of output orbitals:  RY* RY* RY* RY* RY* RY* RY* RY* RY* RY* RY* RY* RY* RY* RY* RY* RY* RY* RY* RY* 
 Labels of output orbitals:  RY* RY* RY* RY* RY* RY* RY* RY* RY* RY* RY* RY* RY* RY* RY* RY* RY* RY* RY* RY* 
 Labels of output orbitals:  RY* RY* RY* RY* RY* RY* RY* RY* RY* RY* RY* RY* RY* RY* RY* RY* RY* RY* RY* RY* 
 Labels of output orbitals:  RY* RY* RY* RY* RY* RY* RY* RY* RY* RY* RY* RY* RY* RY* RY* RY* RY* RY* RY* RY* 
 Labels of output orbitals:  RY* RY* RY* RY* RY* RY* RY* RY* RY* RY* RY* RY* RY* RY* RY* RY* RY* RY* RY* RY* 
 Labels of output orbitals:  RY* RY* RY* RY* RY* RY* RY* RY* RY* RY* RY* RY* RY* RY* RY* RY* RY* RY* RY* RY* 
 Labels of output orbitals:  RY* RY* RY* RY* RY* RY* RY* RY* RY* RY* RY* RY* RY* RY* RY* RY* RY* RY* RY* RY* 
 Labels of output orbitals:  RY* RY* RY* RY* RY* RY* RY* RY* RY* RY* RY* RY* RY* RY* RY* RY* RY* RY* RY* RY* 
 Labels of output orbitals:  RY* RY* RY* RY* RY* RY* RY* RY* RY* RY* RY* RY* RY* RY* RY* RY* RY* RY* RY* RY* 
 Labels of output orbitals:  RY* RY* RY* RY* RY* RY* RY* RY* RY* RY* RY* RY* RY* RY* RY* RY* RY* RY* RY* RY* 
 Labels of output orbitals:  RY* RY* RY* RY* RY* RY* RY* RY* RY* RY* RY* RY* RY* RY* RY* RY* RY* RY* RY* RY* 
 Labels of output orbitals:  RY* RY* RY* RY* RY* RY* RY* RY* RY* RY* RY* RY* RY* RY* RY* RY* RY* RY* RY* RY* 
 Labels of output orbitals:  RY* RY* RY* RY* RY* RY* RY* RY* RY* RY* RY* RY* RY* RY* RY* RY* RY* RY* RY* RY* 
 Labels of output orbitals:  RY* RY* RY* RY* RY* RY* RY* RY* RY* RY* RY* 
 GSVD:  LWork=      -12528 too small for GESVD, short by       59940 words or       59940 for optimal perf.
 GSVD:  LWork=     -277713 too small for GESVD, short by     1375490 words or     1375490 for optimal perf.
 1\1\GINC-CN074\SP\RwB97XD\6-311++G(d,p)\Ca2H19O16Si2(1-)\18CE90J01\07-
 May-2022\0\\# wb97xd/6-311++g(d,p) scrf=(cpcm,solvent=water) nosymm po
 p=(savenbos,nboread) scf=xqc\\c2sdimerts2nbo\\-1,1\Si,0,-2.0531758,-0.
 18463811,0.\O,0,-3.7210348,-0.05548011,-0.20891\O,0,-1.8082188,-0.2511
 0311,-1.732245\O,0,-1.8207938,1.37420989,0.681572\O,0,-2.1986638,-1.57
 986411,0.991601\Ca,0,-5.0388898,1.64667389,-1.029093\O,0,-5.3091438,-0
 .82799811,-2.022872\O,0,-5.7978088,0.44058189,1.115654\O,0,-3.9217698,
 3.07869489,0.212955\O,0,-3.4745178,1.43089989,-2.869998\H,0,-4.8862498
 ,0.09613989,0.83228\H,0,-5.6594538,0.96208589,1.908075\H,0,-4.5624068,
 -0.76039811,-1.343229\H,0,-4.8796028,-0.81568911,-2.88046\H,0,-2.59885
 88,1.96928989,0.568936\H,0,-3.7085868,4.00378189,0.315766\H,0,-2.78871
 58,0.80135689,-2.510396\H,0,-3.0023398,2.13995089,-3.308531\H,0,-1.310
 2968,-1.85572511,1.225908\H,0,-0.8767418,-0.19886511,-1.982714\Si,0,1.
 0476632,0.41509489,-0.291377\O,0,2.4861872,-0.08978311,0.227551\O,0,0.
 7584612,2.00714589,0.124328\O,0,1.0790192,0.40564889,-1.989378\O,0,-0.
 2287058,-0.45975611,0.193695\Ca,0,4.2485852,-0.67840411,-1.303662\O,0,
 4.8509292,0.82837989,0.64379\O,0,3.7692502,-2.30355711,0.549745\O,0,2.
 7108762,-1.49593411,-2.671149\O,0,3.5946742,1.44792289,-2.408961\H,0,3
 .0439162,-1.64262011,0.674747\H,0,3.3526262,-3.14969911,0.377661\H,0,3
 .8700632,0.75643889,0.747728\H,0,5.0696902,1.76058989,0.606895\H,0,1.5
 639242,-0.40090811,-2.343806\H,0,2.5601952,-2.16927511,-3.330642\H,0,2
 .6220852,1.33073689,-2.395067\H,0,3.7662122,2.31487889,-2.035923\H,0,-
 0.1840578,2.04799889,0.389354\\Version=EM64L-G16RevB.01\HF=-3150.32164
 97\RMSD=4.225e-09\Dipole=4.9265799,2.3977248,-4.3093053\Quadrupole=15.
 2449425,-3.7890758,-11.4558666,-27.7023483,2.3548241,-8.3622741\PG=C01
  [X(Ca2H19O16Si2)]\\@


 SEEN ON A WALL AT THE UNIVERSITY OF ILLINOIS AT CHICAGO CIRCLE:

 TO DO IS TO BE  -- SOCRATES
 TO BE IS TO DO  -- SARTRE
 OO BE DO BE DO  -- SINATRA
 Job cpu time:       0 days  1 hours 21 minutes 46.9 seconds.
 Elapsed time:       0 days  0 hours  5 minutes 15.1 seconds.
 File lengths (MBytes):  RWF=    301 Int=      0 D2E=      0 Chk=     25 Scr=      1
 Normal termination of Gaussian 16 at Sat May  7 11:02:25 2022.
