 Entering Gaussian System, Link 0=g16
 Initial command:
 /home/apps/g16/l1.exe "./Gau-402735.inp" -scrdir="./"
 Entering Link 1 = /home/apps/g16/l1.exe PID=    402736.
  
 Copyright (c) 1988-2017, Gaussian, Inc.  All Rights Reserved.
  
 This is part of the Gaussian(R) 16 program.  It is based on
 the Gaussian(R) 09 system (copyright 2009, Gaussian, Inc.),
 the Gaussian(R) 03 system (copyright 2003, Gaussian, Inc.),
 the Gaussian(R) 98 system (copyright 1998, Gaussian, Inc.),
 the Gaussian(R) 94 system (copyright 1995, Gaussian, Inc.),
 the Gaussian 92(TM) system (copyright 1992, Gaussian, Inc.),
 the Gaussian 90(TM) system (copyright 1990, Gaussian, Inc.),
 the Gaussian 88(TM) system (copyright 1988, Gaussian, Inc.),
 the Gaussian 86(TM) system (copyright 1986, Carnegie Mellon
 University), and the Gaussian 82(TM) system (copyright 1983,
 Carnegie Mellon University). Gaussian is a federally registered
 trademark of Gaussian, Inc.
  
 This software contains proprietary and confidential information,
 including trade secrets, belonging to Gaussian, Inc.
  
 This software is provided under written license and may be
 used, copied, transmitted, or stored only in accord with that
 written license.
  
 The following legend is applicable only to US Government
 contracts under FAR:
  
                    RESTRICTED RIGHTS LEGEND
  
 Use, reproduction and disclosure by the US Government is
 subject to restrictions as set forth in subparagraphs (a)
 and (c) of the Commercial Computer Software - Restricted
 Rights clause in FAR 52.227-19.
  
 Gaussian, Inc.
 340 Quinnipiac St., Bldg. 40, Wallingford CT 06492
  
  
 ---------------------------------------------------------------
 Warning -- This program may not be used in any manner that
 competes with the business of Gaussian, Inc. or will provide
 assistance to any competitor of Gaussian, Inc.  The licensee
 of this program is prohibited from giving any competitor of
 Gaussian, Inc. access to this program.  By using this program,
 the user acknowledges that Gaussian, Inc. is engaged in the
 business of creating and licensing software in the field of
 computational chemistry and represents and warrants to the
 licensee that it is not a competitor of Gaussian, Inc. and that
 it will not use this program in any manner prohibited above.
 ---------------------------------------------------------------
  

 Cite this work as:
 Gaussian 16, Revision B.01,
 M. J. Frisch, G. W. Trucks, H. B. Schlegel, G. E. Scuseria, 
 M. A. Robb, J. R. Cheeseman, G. Scalmani, V. Barone, 
 G. A. Petersson, H. Nakatsuji, X. Li, M. Caricato, A. V. Marenich, 
 J. Bloino, B. G. Janesko, R. Gomperts, B. Mennucci, H. P. Hratchian, 
 J. V. Ortiz, A. F. Izmaylov, J. L. Sonnenberg, D. Williams-Young, 
 F. Ding, F. Lipparini, F. Egidi, J. Goings, B. Peng, A. Petrone, 
 T. Henderson, D. Ranasinghe, V. G. Zakrzewski, J. Gao, N. Rega, 
 G. Zheng, W. Liang, M. Hada, M. Ehara, K. Toyota, R. Fukuda, 
 J. Hasegawa, M. Ishida, T. Nakajima, Y. Honda, O. Kitao, H. Nakai, 
 T. Vreven, K. Throssell, J. A. Montgomery, Jr., J. E. Peralta, 
 F. Ogliaro, M. J. Bearpark, J. J. Heyd, E. N. Brothers, K. N. Kudin, 
 V. N. Staroverov, T. A. Keith, R. Kobayashi, J. Normand, 
 K. Raghavachari, A. P. Rendell, J. C. Burant, S. S. Iyengar, 
 J. Tomasi, M. Cossi, J. M. Millam, M. Klene, C. Adamo, R. Cammi, 
 J. W. Ochterski, R. L. Martin, K. Morokuma, O. Farkas, 
 J. B. Foresman, and D. J. Fox, Gaussian, Inc., Wallingford CT, 2016.
 
 ******************************************
 Gaussian 16:  EM64L-G16RevB.01 20-Dec-2017
                 7-May-2022 
 ******************************************
 %nprocshared=16
 Will use up to   16 processors via shared memory.
 %mem=2000MW
 %chk=c2sdimerts1nbo.chk
 ----------------------------------------------------------------------
 # wb97xd/6-311++g(d,p) scrf=(cpcm,solvent=water) nosymm pop=(savenbos,
 nboread) scf=xqc
 ----------------------------------------------------------------------
 1/38=1,172=1/1;
 2/12=2,15=1,17=6,18=5,40=1/2;
 3/5=4,6=6,7=1111,11=2,25=1,30=1,70=2101,72=1,74=-58/1,2,3;
 4//1;
 5/5=2,8=3,13=1,38=5,53=1/2,8;
 6/7=2,8=2,9=2,10=2,28=1,40=2,73=1/1,7;
 99/5=1,9=1/99;
 --------------
 c2sdimerts1nbo
 --------------
 Symbolic Z-matrix:
 Charge = -1 Multiplicity = 1
 Si                    0.28065  -0.59823   0. 
 O                    -1.31775  -0.58207   0.08386 
 O                     0.72916  -0.97228  -1.57774 
 O                     0.90725   0.89874   0.38088 
 O                     1.05821  -1.70215   0.95977 
 Ca                   -2.52168   1.1223   -1.15224 
 O                    -3.42616  -1.2688   -1.25703 
 O                    -3.15772   0.7914    1.26744 
 O                    -0.88981   2.52401  -0.57435 
 O                    -1.2232    0.15907  -2.99669 
 H                    -2.37892   0.18976   1.19291 
 H                    -2.9334    1.4596    1.91742 
 H                    -2.5883   -1.3886   -0.75027 
 H                    -3.29678  -1.71168  -2.09806 
 H                     0.30469   1.62929   0.03686 
 H                    -0.63356   3.38533  -0.9004 
 H                    -0.4187   -0.29027  -2.64778 
 H                    -0.94112   0.68317  -3.74844 
 H                     1.93539  -1.85933   0.5264 
 H                     1.68499  -1.25374  -1.54576 
 Si                    4.26001  -0.55257  -0.64276 
 O                     5.6718   -1.00556   0.02919 
 O                     3.71149   0.80744   0.18045 
 O                     4.6581    0.0757   -2.17984 
 O                     3.11972  -1.67539  -0.75535 
 Ca                    7.71931  -0.95083  -1.21236 
 O                     7.749    -0.04345   1.16449 
 O                     7.11956  -3.10975  -0.02548 
 O                     6.64586  -1.42573  -3.09136 
 O                     6.98515   1.35377  -1.75729 
 H                     6.32353  -2.52833   0.11739 
 H                     6.82536  -3.87164  -0.52737 
 H                     6.78755  -0.24128   1.0066 
 H                     7.81648   0.87713   1.42145 
 H                     5.24594  -0.55383  -2.6757 
 H                     6.60108  -2.11331  -3.75231 
 H                     6.04287   1.12284  -1.93695 
 H                     6.97302   2.06261  -1.11171 
 H                     2.74422   0.90081   0.23233 
 
                          Input orientation:                          
 ---------------------------------------------------------------------
 Center     Atomic      Atomic             Coordinates (Angstroms)
 Number     Number       Type             X           Y           Z
 ---------------------------------------------------------------------
      1         14           0        0.280650   -0.598227    0.000000
      2          8           0       -1.317747   -0.582071    0.083862
      3          8           0        0.729162   -0.972277   -1.577740
      4          8           0        0.907246    0.898744    0.380878
      5          8           0        1.058212   -1.702153    0.959773
      6         20           0       -2.521676    1.122300   -1.152239
      7          8           0       -3.426155   -1.268804   -1.257026
      8          8           0       -3.157718    0.791404    1.267443
      9          8           0       -0.889811    2.524010   -0.574351
     10          8           0       -1.223202    0.159071   -2.996685
     11          1           0       -2.378916    0.189756    1.192913
     12          1           0       -2.933400    1.459598    1.917423
     13          1           0       -2.588297   -1.388598   -0.750272
     14          1           0       -3.296782   -1.711684   -2.098055
     15          1           0        0.304694    1.629290    0.036855
     16          1           0       -0.633561    3.385330   -0.900398
     17          1           0       -0.418702   -0.290269   -2.647782
     18          1           0       -0.941120    0.683175   -3.748436
     19          1           0        1.935394   -1.859327    0.526404
     20          1           0        1.684992   -1.253736   -1.545764
     21         14           0        4.260010   -0.552572   -0.642757
     22          8           0        5.671805   -1.005557    0.029194
     23          8           0        3.711495    0.807444    0.180451
     24          8           0        4.658101    0.075697   -2.179837
     25          8           0        3.119723   -1.675385   -0.755345
     26         20           0        7.719310   -0.950830   -1.212356
     27          8           0        7.749003   -0.043447    1.164493
     28          8           0        7.119560   -3.109748   -0.025482
     29          8           0        6.645856   -1.425729   -3.091355
     30          8           0        6.985150    1.353773   -1.757293
     31          1           0        6.323534   -2.528333    0.117387
     32          1           0        6.825365   -3.871642   -0.527365
     33          1           0        6.787548   -0.241284    1.006599
     34          1           0        7.816483    0.877127    1.421447
     35          1           0        5.245940   -0.553830   -2.675697
     36          1           0        6.601077   -2.113314   -3.752312
     37          1           0        6.042866    1.122836   -1.936948
     38          1           0        6.973025    2.062608   -1.111708
     39          1           0        2.744217    0.900811    0.232331
 ---------------------------------------------------------------------
                    Distance matrix (angstroms):
                    1          2          3          4          5
     1  Si   0.000000
     2  O    1.600677   0.000000
     3  O    1.682361   2.665149   0.000000
     4  O    1.666917   2.689168   2.714520   0.000000
     5  O    1.656629   2.768932   2.660820   2.668815   0.000000
     6  Ca   3.484379   2.425339   3.890534   3.762703   5.025309
     7  O    3.971170   2.591325   4.178211   5.114622   5.021109
     8  O    3.919166   2.583175   5.129666   4.161905   4.907805
     9  O    3.383522   3.203765   3.981443   2.604490   4.899876
    10  O    3.437323   3.169858   2.665535   4.061263   4.931791
    11  H    3.019478   1.718078   4.322845   3.458457   3.930334
    12  H    4.270980   3.184445   5.616453   4.174457   5.181383
    13  H    3.068950   1.720629   3.444352   4.327846   4.039752
    14  H    4.294140   3.154896   4.126218   5.534735   5.321313
    15  H    2.227952   2.743108   3.091155   1.007531   3.538090
    16  H    4.185119   4.144532   4.615685   3.193566   5.674929
    17  H    2.755845   2.890555   1.711057   3.513498   4.145979
    18  H    4.145538   4.053295   3.200357   4.529256   5.643966
    19  H    2.146078   3.522805   2.582494   2.947070   0.990939
    20  H    2.188894   3.481847   0.996922   2.991656   2.621383
    21  Si   4.031194   5.624964   3.676579   3.794097   3.760472
    22  O    5.406600   7.002583   5.197409   5.143060   4.757779
    23  O    3.712031   5.218559   3.892679   2.812884   3.734345
    24  O    4.936389   6.423998   4.110636   4.615580   5.096774
    25  O    3.129081   4.646584   2.624019   3.579413   2.681823
    26  Ca   7.545051   9.136989   6.999724   7.236265   7.046478
    27  O    7.578926   9.146794   7.593467   6.950641   6.896369
    28  O    7.285539   8.808476   6.914873   7.404457   6.300158
    29  O    7.124401   8.614681   6.124044   7.098677   6.907229
    30  O    7.200604   8.722124   6.676836   6.459082   7.200675
    31  H    6.344725   7.885318   6.049113   6.414862   5.395906
    32  H    7.336665   8.803701   6.831786   7.655431   6.338637
    33  H    6.593965   8.164765   6.627005   6.022387   5.912835
    34  H    7.809351   9.346259   7.914893   6.987189   7.248452
    35  H    5.640517   7.120249   4.667107   5.502444   5.663246
    36  H    7.504874   8.931333   6.364756   7.653461   7.286711
    37  H    6.317987   7.821062   5.723109   5.638894   6.420150
    38  H    7.287237   8.784112   6.957984   6.354216   7.310915
    39  H    2.893139   4.326723   3.293215   1.842969   3.185468
                    6          7          8          9         10
     6  Ca   0.000000
     7  O    2.558601   0.000000
     8  O    2.523668   3.269474   0.000000
     9  O    2.227494   4.613515   3.396694   0.000000
    10  O    2.452718   3.149324   4.724932   3.401733   0.000000
    11  H    2.527797   3.037484   0.986949   3.284722   4.346188
    12  H    3.115463   4.214749   0.958789   3.393842   5.363264
    13  H    2.543742   0.986487   3.024537   4.268993   3.050432
    14  H    3.086555   0.959276   4.196590   5.104536   2.933768
    15  H    3.107950   4.898195   3.768912   1.612743   3.701132
    16  H    2.957990   5.439368   4.218928   0.955951   3.892408
    17  H    2.941853   3.454925   4.899103   3.527212   0.985322
    18  H    3.071030   4.024021   5.484894   3.669621   0.958846
    19  H    5.619023   5.681157   5.789240   5.329830   5.144202
    20  H    4.847315   5.119318   5.962262   4.673823   3.543838
    21  Si   7.004001   7.743865   7.776749   5.999224   6.009412
    22  O    8.547321   9.192200   9.095208   7.475086   7.619280
    23  O    6.381819   7.571208   6.954703   4.968736   5.904728
    24  O    7.328065   8.247088   8.572223   6.273049   5.938343
    25  O    6.309513   6.577652   7.041519   5.808962   5.220137
    26  Ca  10.448889  11.150089  11.291347   9.305833   9.186089
    27  O   10.593067  11.499974  10.939110   9.178481   9.892264
    28  O   10.589299  10.775801  11.068563   9.807676   9.440069
    29  O    9.710626  10.238886  10.955586   8.872543   8.027617
    30  O    9.528872  10.748184  10.599201   8.048839   8.386921
    31  H    9.652814   9.926322  10.111252   8.833856   8.594929
    32  H   10.615889  10.601926  11.163659  10.021503   9.334003
    33  H    9.653061  10.511875  10.002140   8.311925   8.964300
    34  H   10.656524  11.754835  10.975616   9.082675  10.087190
    35  H    8.091118   8.816408   9.379737   7.178871   6.516215
    36  H   10.022684  10.367499  11.352066   9.365768   8.182545
    37  H    8.600416   9.790025   9.748267   7.202914   7.405919
    38  H    9.541235  10.920731  10.483715   7.894671   8.622919
    39  H    5.449378   6.708122   5.993018   4.060994   5.168862
                   11         12         13         14         15
    11  H    0.000000
    12  H    1.563607   0.000000
    13  H    2.512172   3.917641   0.000000
    14  H    3.910041   5.129633   1.556552   0.000000
    15  H    3.257375   3.748411   4.254011   5.356359   0.000000
    16  H    4.199989   4.115558   5.160806   5.874239   2.200555
    17  H    4.338640   5.497894   3.084479   3.256680   3.378651
    18  H    5.169879   6.055904   3.999303   3.742760   4.095804
    19  H    4.822473   6.054366   4.723904   5.855361   3.881918
    20  H    5.108754   6.378510   4.348792   5.033171   3.566755
    21  Si   6.927920   7.896106   6.899986   7.782451   4.568032
    22  O    8.221747   9.148331   8.305635   9.244423   5.978993
    23  O    6.204815   6.899058   6.736188   7.788038   3.507470
    24  O    7.804362   8.736911   7.529814   8.153624   5.126356
    25  O    6.124499   7.322029   5.715222   6.555587   4.412805
    26  Ca  10.443200  11.361598  10.327242  11.077800   7.949470
    27  O   10.130643  10.813870  10.598846  11.637723   7.712804
    28  O   10.128784  11.212306   9.885857  10.712158   8.300889
    29  O   10.119845  11.188169   9.526365   9.996223   7.702543
    30  O    9.886576  10.577919  10.009275  10.734583   6.922671
    31  H    9.180272  10.238874   9.026215   9.905836   7.315651
    32  H   10.206522  11.385631   9.738184  10.468541   8.549722
    33  H    9.178484   9.910572   9.607778  10.653387   6.816659
    34  H   10.221099  10.777071  10.867811  11.941252   7.675273
    35  H    8.582394   9.594386   8.110448   8.640162   6.044821
    36  H   10.507124  11.654091   9.694434  10.043181   8.246776
    37  H    9.032889   9.774607   9.067110   9.761633   6.089254
    38  H    9.812118  10.376729  10.171545  10.985768   6.780383
    39  H    5.260685   5.948707   5.885797   6.982084   2.553461
                   16         17         18         19         20
    16  H    0.000000
    17  H    4.075481   0.000000
    18  H    3.937963   1.559472   0.000000
    19  H    6.011798   4.251960   5.745686   0.000000
    20  H    5.226195   2.562858   3.936985   2.173320   0.000000
    21  Si   6.286532   5.096987   6.182561   2.911767   2.817405
    22  O    7.739617   6.691197   7.800838   3.864830   4.293805
    23  O    5.166550   5.124686   6.090847   3.222714   3.366749
    24  O    6.371210   5.111441   5.846436   4.298976   3.317954
    25  O    6.302303   4.245034   5.568828   1.754808   1.691450
    26  Ca   9.416478   8.289996   9.170863   6.107564   6.051108
    27  O    9.289115   9.016971  10.009150   6.123939   6.751483
    28  O   10.151965   8.464710   9.655113   5.361316   5.940586
    29  O    8.996471   7.168961   7.901989   5.955220   5.198904
    30  O    7.931346   7.636286   8.200007   6.406194   5.910628
    31  H    9.187408   7.623178   8.833661   4.457649   5.089866
    32  H   10.413375   8.354574   9.562424   5.391814   5.857816
    33  H    8.477135   8.080033   9.121255   5.137319   5.794454
    34  H    9.115113   9.259574  10.171574   6.548014   7.137233
    35  H    7.296383   5.670839   6.400052   4.787221   3.800917
    36  H    9.524100   7.336264   8.043948   6.335654   5.456704
    37  H    7.125166   6.652369   7.228475   5.642050   4.979175
    38  H    7.723626   7.907792   8.455109   6.591108   6.256983
    39  H    4.343420   4.440471   5.429142   2.891200   2.987583
                   21         22         23         24         25
    21  Si   0.000000
    22  O    1.627845   0.000000
    23  O    1.681720   2.674447   0.000000
    24  O    1.707575   2.660174   2.646219   0.000000
    25  O    1.604257   2.752688   2.718519   2.731679   0.000000
    26  Ca   3.528429   2.395145   4.592823   3.370575   4.678679
    27  O    3.962125   2.555252   4.241913   4.555482   5.270601
    28  O    3.885512   2.554722   5.196317   4.565861   4.311472
    29  O    3.528498   3.295929   4.929731   2.652605   4.237084
    30  O    3.507525   3.237723   3.843195   2.688341   5.012108
    31  H    2.956278   1.658727   4.237232   3.851218   3.428350
    32  H    4.196497   3.139252   5.664895   4.796789   4.313618
    33  H    3.034094   1.668627   3.353275   3.845568   4.314398
    34  H    4.353559   3.175297   4.289039   4.856636   5.771767
    35  H    2.259404   2.775221   3.516414   0.993849   3.076757
    36  H    4.193548   4.048513   5.687454   3.322590   4.614479
    37  H    2.767760   2.921208   3.165145   1.753017   4.215565
    38  H    3.797306   3.522565   3.725948   3.232273   5.380290
    39  H    2.275023   3.499468   0.973158   3.187839   2.784474
                   26         27         28         29         30
    26  Ca   0.000000
    27  O    2.544334   0.000000
    28  O    2.535606   3.348797   0.000000
    29  O    2.215507   4.608674   3.529857   0.000000
    30  O    2.479343   3.327541   4.789599   3.101689   0.000000
    31  H    2.490968   3.050090   0.996048   3.408174   4.361526
    32  H    3.130414   4.286090   0.958603   3.548064   5.370588
    33  H    2.509063   0.994216   3.066514   4.268046   3.197241
    34  H    3.207458   0.958142   4.298195   5.199894   3.320044
    35  H    2.901127   4.612253   4.131199   1.700807   2.739939
    36  H    3.008852   5.456836   3.892424   0.954800   4.018495
    37  H    2.763257   3.726937   4.767362   2.862068   0.986665
    38  H    3.106104   3.196670   5.287213   4.024244   0.958840
    39  H    5.501568   5.177686   5.940932   5.628718   4.706303
                   31         32         33         34         35
    31  H    0.000000
    32  H    1.572265   0.000000
    33  H    2.497319   3.941316   0.000000
    34  H    3.940384   5.227905   1.575325   0.000000
    35  H    3.586250   4.256500   4.004191   5.043998   0.000000
    36  H    3.901774   3.679987   5.117275   6.098174   2.329697
    37  H    4.198821   5.248242   3.328640   3.805904   1.998012
    38  H    4.796796   5.964779   3.135210   2.921243   3.503517
    39  H    4.958200   6.325284   4.272282   5.209841   4.102588
                   36         37         38         39
    36  H    0.000000
    37  H    3.752308   0.000000
    38  H    4.954741   1.558649   0.000000
    39  H    6.311711   3.954257   4.586832   0.000000
 Symmetry turned off by external request.
 Stoichiometry    Ca2H19O16Si2(1-)
 Framework group  C1[X(Ca2H19O16Si2)]
 Deg. of freedom   111
 Full point group                 C1      NOp   1
 Rotational constants (GHZ):           0.4655861           0.0752570           0.0748333
 Standard basis: 6-311++G(d,p) (5D, 7F)
   631 basis functions,   997 primitive gaussians,   653 cartesian basis functions
   108 alpha electrons      108 beta electrons
       nuclear repulsion energy      2812.3898197700 Hartrees.
 NAtoms=   39 NActive=   39 NUniq=   39 SFac= 1.00D+00 NAtFMM=   60 NAOKFM=F Big=F
 Integral buffers will be    131072 words long.
 Raffenetti 2 integral format.
 Two-electron integral symmetry is turned off.
 Nuclear repulsion after empirical dispersion term =     2812.3582780928 Hartrees.
 ------------------------------------------------------------------------------
 Polarizable Continuum Model (PCM)
 =================================
 Model                : C-PCM.
 Atomic radii         : UFF (Universal Force Field).
 Polarization charges : Total charges.
 Charge compensation  : None.
 Solution method      : On-the-fly selection.
 Cavity type          : Scaled VdW (van der Waals Surface) (Alpha=1.100).
 Cavity algorithm     : GePol (No added spheres)
                        Default sphere list used, NSphG=   39.
                        Lebedev-Laikov grids with approx.  5.0 points / Ang**2.
                        Smoothing algorithm: York/Karplus (Gamma=1.0000).
                        Polarization charges: spherical gaussians, with
                                              point-specific exponents (IZeta= 3).
                        Self-potential: point-specific (ISelfS= 7).
                        Self-field    : sphere-specific E.n sum rule (ISelfD= 2).
 Solvent              : Water, Eps=  78.355300 Eps(inf)=   1.777849
 ------------------------------------------------------------------------------
 One-electron integrals computed using PRISM.
 NBasis=   631 RedAO= T EigKep=  7.94D-05  NBF=   631
 NBsUse=   631 1.00D-06 EigRej= -1.00D+00 NBFU=   631
 ExpMin= 7.10D-03 ExpMax= 2.03D+05 ExpMxC= 6.92D+03 IAcc=3 IRadAn=         5 AccDes= 0.00D+00
 Harris functional with IExCor= 4639 and IRadAn=       5 diagonalized for initial guess.
 HarFok:  IExCor= 4639 AccDes= 0.00D+00 IRadAn=         5 IDoV= 1 UseB2=F ITyADJ=14
 ICtDFT=  3500011 ScaDFX=  1.000000  1.000000  1.000000  1.000000
 FoFCou: FMM=F IPFlag=           0 FMFlag=      100000 FMFlg1=           0
         NFxFlg=           0 DoJE=T BraDBF=F KetDBF=T FulRan=T
         wScrn=  0.000000 ICntrl=       500 IOpCl=  0 I1Cent=   200000004 NGrid=           0
         NMat0=    1 NMatS0=      1 NMatT0=    0 NMatD0=    1 NMtDS0=    0 NMtDT0=    0
 Symmetry not used in FoFCou.
 Requested convergence on RMS density matrix=1.00D-08 within  32 cycles.
 Requested convergence on MAX density matrix=1.00D-06.
 Requested convergence on             energy=1.00D-06.
 No special actions if energy rises.
 Inv3:  Mode=1 IEnd=    34639212.
 Iteration    1 A*A^-1 deviation from unit magnitude is 9.21D-15 for   2941.
 Iteration    1 A*A^-1 deviation from orthogonality  is 5.00D-15 for   2870    811.
 Iteration    1 A^-1*A deviation from unit magnitude is 8.99D-15 for   2941.
 Iteration    1 A^-1*A deviation from orthogonality  is 5.33D-15 for   2284   1105.
 Error on total polarization charges =  0.02407
 SCF Done:  E(RwB97XD) =  -3150.33694282     A.U. after   14 cycles
            NFock= 14  Conv=0.30D-08     -V/T= 2.0022
 QCSCF skips out because SCF is already converged.

 **********************************************************************

            Population analysis using the SCF Density.

 **********************************************************************

 Alpha  occ. eigenvalues -- -145.48071-145.47766 -66.27213 -66.24617 -19.25620
 Alpha  occ. eigenvalues --  -19.25397 -19.25052 -19.24881 -19.24484 -19.24400
 Alpha  occ. eigenvalues --  -19.21411 -19.21044 -19.20630 -19.20181 -19.20017
 Alpha  occ. eigenvalues --  -19.17731 -19.16636 -19.16286 -19.16119 -19.14693
 Alpha  occ. eigenvalues --  -15.47638 -15.47327 -12.59554 -12.59537 -12.59488
 Alpha  occ. eigenvalues --  -12.59241 -12.59228 -12.59180  -5.39906  -5.37251
 Alpha  occ. eigenvalues --   -3.74460  -3.74384  -3.74351  -3.71837  -3.71765
 Alpha  occ. eigenvalues --   -3.71631  -1.82707  -1.82416  -1.12936  -1.12666
 Alpha  occ. eigenvalues --   -1.12571  -1.12010  -1.11810  -1.11331  -1.09867
 Alpha  occ. eigenvalues --   -1.09399  -1.09339  -1.09023  -1.08679  -1.08525
 Alpha  occ. eigenvalues --   -1.08239  -1.06945  -1.05731  -1.05544  -1.04507
 Alpha  occ. eigenvalues --   -0.99821  -0.98784  -0.98534  -0.98203  -0.96022
 Alpha  occ. eigenvalues --   -0.64245  -0.63794  -0.63458  -0.63083  -0.62399
 Alpha  occ. eigenvalues --   -0.62156  -0.60621  -0.60132  -0.56890  -0.55773
 Alpha  occ. eigenvalues --   -0.54655  -0.51972  -0.50894  -0.50237  -0.49524
 Alpha  occ. eigenvalues --   -0.49416  -0.48739  -0.48582  -0.48301  -0.48197
 Alpha  occ. eigenvalues --   -0.46790  -0.45748  -0.44987  -0.44341  -0.43268
 Alpha  occ. eigenvalues --   -0.42714  -0.42608  -0.42426  -0.41882  -0.41609
 Alpha  occ. eigenvalues --   -0.41433  -0.40914  -0.40479  -0.39741  -0.39503
 Alpha  occ. eigenvalues --   -0.38328  -0.37973  -0.37245  -0.36822  -0.35872
 Alpha  occ. eigenvalues --   -0.35494  -0.34872  -0.34446  -0.33893  -0.33680
 Alpha  occ. eigenvalues --   -0.33419  -0.32502  -0.31971
 Alpha virt. eigenvalues --    0.01458   0.01552   0.01934   0.01985   0.02310
 Alpha virt. eigenvalues --    0.02344   0.02373   0.03203   0.05437   0.05582
 Alpha virt. eigenvalues --    0.06713   0.06882   0.07010   0.07025   0.07293
 Alpha virt. eigenvalues --    0.07875   0.08131   0.08338   0.08685   0.08773
 Alpha virt. eigenvalues --    0.09207   0.09819   0.10081   0.10191   0.10388
 Alpha virt. eigenvalues --    0.11440   0.11800   0.12554   0.12709   0.12974
 Alpha virt. eigenvalues --    0.13074   0.13973   0.14085   0.14355   0.14960
 Alpha virt. eigenvalues --    0.15278   0.15907   0.16923   0.17136   0.17192
 Alpha virt. eigenvalues --    0.17365   0.17505   0.17777   0.17875   0.18082
 Alpha virt. eigenvalues --    0.18340   0.18398   0.19027   0.19557   0.20787
 Alpha virt. eigenvalues --    0.21286   0.21555   0.21848   0.22507   0.22697
 Alpha virt. eigenvalues --    0.22845   0.22934   0.23150   0.23777   0.24449
 Alpha virt. eigenvalues --    0.24629   0.24765   0.25031   0.25409   0.25672
 Alpha virt. eigenvalues --    0.26013   0.26288   0.26516   0.26648   0.26849
 Alpha virt. eigenvalues --    0.27044   0.27254   0.27664   0.28106   0.28491
 Alpha virt. eigenvalues --    0.29012   0.29307   0.30044   0.30222   0.30347
 Alpha virt. eigenvalues --    0.30530   0.30765   0.31181   0.31349   0.31595
 Alpha virt. eigenvalues --    0.31824   0.32074   0.32639   0.32718   0.32925
 Alpha virt. eigenvalues --    0.33267   0.33406   0.33597   0.33662   0.33987
 Alpha virt. eigenvalues --    0.34072   0.34545   0.34901   0.34958   0.35187
 Alpha virt. eigenvalues --    0.35480   0.35826   0.36198   0.36532   0.36794
 Alpha virt. eigenvalues --    0.36961   0.37183   0.37565   0.37763   0.38039
 Alpha virt. eigenvalues --    0.38459   0.38622   0.38898   0.39631   0.40017
 Alpha virt. eigenvalues --    0.40222   0.40410   0.40824   0.41742   0.41831
 Alpha virt. eigenvalues --    0.42490   0.42901   0.43268   0.44072   0.44288
 Alpha virt. eigenvalues --    0.44429   0.45006   0.45144   0.45627   0.45894
 Alpha virt. eigenvalues --    0.46401   0.47320   0.48007   0.48261   0.48747
 Alpha virt. eigenvalues --    0.48983   0.49557   0.50050   0.50617   0.51085
 Alpha virt. eigenvalues --    0.51708   0.52063   0.53550   0.53800   0.54765
 Alpha virt. eigenvalues --    0.55204   0.55277   0.56452   0.56748   0.57489
 Alpha virt. eigenvalues --    0.58738   0.59471   0.60140   0.61162   0.61975
 Alpha virt. eigenvalues --    0.62349   0.63442   0.64189   0.64907   0.65310
 Alpha virt. eigenvalues --    0.66039   0.66255   0.66704   0.67328   0.68222
 Alpha virt. eigenvalues --    0.69001   0.70600   0.70758   0.71428   0.72953
 Alpha virt. eigenvalues --    0.73848   0.74259   0.74758   0.77510   0.78365
 Alpha virt. eigenvalues --    0.81175   0.81769   0.82869   0.84138   0.85792
 Alpha virt. eigenvalues --    0.86717   0.88019   0.89221   0.89591   0.93028
 Alpha virt. eigenvalues --    0.95737   0.96611   1.02294   1.04332   1.06526
 Alpha virt. eigenvalues --    1.06817   1.08390   1.08520   1.08809   1.09347
 Alpha virt. eigenvalues --    1.10233   1.10985   1.11370   1.11743   1.12893
 Alpha virt. eigenvalues --    1.13503   1.14070   1.14390   1.15089   1.15238
 Alpha virt. eigenvalues --    1.16707   1.16817   1.17286   1.17861   1.18876
 Alpha virt. eigenvalues --    1.19218   1.19578   1.20337   1.21056   1.21724
 Alpha virt. eigenvalues --    1.21892   1.22105   1.22850   1.23892   1.24500
 Alpha virt. eigenvalues --    1.25125   1.25410   1.25958   1.26733   1.27069
 Alpha virt. eigenvalues --    1.27835   1.28674   1.29153   1.29362   1.29923
 Alpha virt. eigenvalues --    1.30270   1.30614   1.31012   1.31196   1.31442
 Alpha virt. eigenvalues --    1.32053   1.32159   1.32702   1.33296   1.33635
 Alpha virt. eigenvalues --    1.34636   1.35268   1.35720   1.36104   1.36749
 Alpha virt. eigenvalues --    1.38825   1.39186   1.40357   1.41426   1.42265
 Alpha virt. eigenvalues --    1.43463   1.44002   1.45188   1.45648   1.46309
 Alpha virt. eigenvalues --    1.48154   1.49188   1.49385   1.50117   1.50379
 Alpha virt. eigenvalues --    1.50611   1.51591   1.52792   1.53305   1.54759
 Alpha virt. eigenvalues --    1.55336   1.56275   1.56985   1.58328   1.59365
 Alpha virt. eigenvalues --    1.59770   1.60335   1.61353   1.62430   1.62699
 Alpha virt. eigenvalues --    1.64868   1.65153   1.65423   1.65490   1.67287
 Alpha virt. eigenvalues --    1.68216   1.69193   1.69936   1.70063   1.72097
 Alpha virt. eigenvalues --    1.73652   1.74000   1.74755   1.75394   1.76160
 Alpha virt. eigenvalues --    1.77097   1.77555   1.78927   1.79793   1.80025
 Alpha virt. eigenvalues --    1.81966   1.83226   1.83853   1.85854   1.88178
 Alpha virt. eigenvalues --    1.89419   1.90521   1.91280   1.91704   1.92333
 Alpha virt. eigenvalues --    1.94913   1.95169   1.98775   1.99623   2.01330
 Alpha virt. eigenvalues --    2.02032   2.05053   2.05728   2.15909   2.16397
 Alpha virt. eigenvalues --    2.16607   2.17010   2.17322   2.18369   2.22517
 Alpha virt. eigenvalues --    2.23312   2.24366   2.28290   2.28648   2.30635
 Alpha virt. eigenvalues --    2.32185   2.33324   2.33392   2.39780   2.40571
 Alpha virt. eigenvalues --    2.45160   2.45542   2.46149   2.50040   2.58959
 Alpha virt. eigenvalues --    2.59568   2.63151   2.65585   2.66957   2.67455
 Alpha virt. eigenvalues --    2.71281   2.71758   2.75819   2.77623   2.80995
 Alpha virt. eigenvalues --    2.82728   2.84871   2.85423   2.87410   2.89014
 Alpha virt. eigenvalues --    2.90566   2.92173   2.92548   2.95171   2.98755
 Alpha virt. eigenvalues --    3.00496   3.00701   3.00904   3.01569   3.02795
 Alpha virt. eigenvalues --    3.03964   3.04779   3.08631   3.09533   3.09761
 Alpha virt. eigenvalues --    3.11563   3.12216   3.12635   3.12922   3.13449
 Alpha virt. eigenvalues --    3.13780   3.16105   3.17017   3.17754   3.17896
 Alpha virt. eigenvalues --    3.18077   3.19686   3.20211   3.20273   3.20732
 Alpha virt. eigenvalues --    3.21095   3.21576   3.22137   3.22470   3.23059
 Alpha virt. eigenvalues --    3.24917   3.25307   3.25839   3.27114   3.28033
 Alpha virt. eigenvalues --    3.28677   3.29018   3.29672   3.29906   3.30465
 Alpha virt. eigenvalues --    3.31514   3.32813   3.34537   3.35602   3.39456
 Alpha virt. eigenvalues --    3.39778   3.40751   3.41203   3.41258   3.41641
 Alpha virt. eigenvalues --    3.42860   3.44124   3.45544   3.48556   3.49678
 Alpha virt. eigenvalues --    3.51719   3.59500   3.62877   3.66294   3.80744
 Alpha virt. eigenvalues --    3.82641   3.83078   3.83303   3.84623   3.84986
 Alpha virt. eigenvalues --    3.98030   4.00171   4.01673   4.01784   4.02765
 Alpha virt. eigenvalues --    4.03102   4.03293   4.03581   4.04359   4.04534
 Alpha virt. eigenvalues --    4.06391   4.07208   4.08715   4.48712   4.49525
 Alpha virt. eigenvalues --    4.53454   4.55928   4.57156   4.57374   5.12304
 Alpha virt. eigenvalues --    5.13943   5.14317   5.15174   5.16053   5.16811
 Alpha virt. eigenvalues --    5.17593   5.18022   5.19246   5.19434   5.20354
 Alpha virt. eigenvalues --    5.21022   5.22624   5.23304   5.23810   5.25885
 Alpha virt. eigenvalues --    5.27104   5.29291   5.30024   5.31442   5.32968
 Alpha virt. eigenvalues --    5.34324   5.36703   5.38222   5.41983   5.44094
 Alpha virt. eigenvalues --    5.44601   5.45702   5.47954   5.48293   5.50382
 Alpha virt. eigenvalues --    5.52195   5.54505   5.56661   5.57954   5.66380
 Alpha virt. eigenvalues --    5.69928   5.71212   5.72365   5.75961   5.76357
 Alpha virt. eigenvalues --    5.78092   5.78460   5.78648   5.79615   5.79750
 Alpha virt. eigenvalues --    5.80746   5.84526   6.16724   6.20859  11.65960
 Alpha virt. eigenvalues --   11.67642  11.68512  11.71704  11.84167  11.91181
 Alpha virt. eigenvalues --   14.93901  14.95129  50.03548  50.03637  50.04199
 Alpha virt. eigenvalues --   50.04566  50.04702  50.05321  50.09782  50.11383
 Alpha virt. eigenvalues --   50.12114  50.12328  50.13775  50.16010  50.17477
 Alpha virt. eigenvalues --   50.18262  50.19094  50.20845 108.66034 108.66885
 Alpha virt. eigenvalues --  108.68729 108.70500 108.72203 108.72369 141.63380
 Alpha virt. eigenvalues --  141.67003 318.04505 318.05672
          Condensed to atoms (all electrons):
               1          2          3          4          5          6
     1  Si  12.322135   0.186882   0.045439   0.137921   0.102320  -0.012199
     2  O    0.186882   8.919720  -0.009841  -0.076349  -0.065397   0.034236
     3  O    0.045439  -0.009841   8.724181   0.044214   0.142314  -0.000645
     4  O    0.137921  -0.076349   0.044214   8.525418   0.015587   0.004962
     5  O    0.102320  -0.065397   0.142314   0.015587   8.545997   0.004406
     6  Ca  -0.012199   0.034236  -0.000645   0.004962   0.004406  18.493969
     7  O   -0.018853  -0.041116  -0.003617  -0.001079   0.000780   0.034899
     8  O    0.000703  -0.042928  -0.000465  -0.001461   0.000772   0.032458
     9  O    0.020213  -0.010250  -0.005947  -0.041551  -0.003041   0.048945
    10  O    0.021128  -0.010190   0.005342  -0.014147  -0.005296   0.028582
    11  H   -0.009195   0.005380   0.003576  -0.002698  -0.001708  -0.017486
    12  H    0.001358   0.001656   0.000004   0.000843   0.000024  -0.016007
    13  H    0.014532  -0.001458  -0.000552   0.004548  -0.006909  -0.026420
    14  H   -0.002079   0.003283   0.000344  -0.000305  -0.000130  -0.013561
    15  H    0.012153   0.000789   0.002375   0.134352   0.025653  -0.014586
    16  H   -0.005601   0.001008   0.000228   0.001918  -0.000206  -0.017797
    17  H   -0.006015  -0.023035   0.017916   0.022795   0.021618  -0.010669
    18  H    0.002955   0.000810  -0.003851  -0.000600  -0.000928  -0.009522
    19  H    0.013528  -0.009233  -0.028612   0.006060   0.097925  -0.001692
    20  H    0.039982   0.013993  -0.038766  -0.011816  -0.092868   0.001047
    21  Si   0.060573   0.019327  -0.044792  -0.050481  -0.020720  -0.000166
    22  O    0.001290  -0.000025   0.003590  -0.001189   0.003656  -0.000021
    23  O   -0.039106  -0.002831   0.002665   0.058415   0.020868   0.000197
    24  O    0.009766  -0.000027  -0.003957  -0.006028  -0.005062   0.000200
    25  O   -0.021569   0.000451   0.070555  -0.008703   0.012186  -0.001108
    26  Ca  -0.002952  -0.000121  -0.000269  -0.000247   0.001526  -0.000256
    27  O    0.000086  -0.000000  -0.000001   0.000007   0.000030  -0.000031
    28  O    0.000404   0.000001   0.000066  -0.000019   0.000137   0.000015
    29  O    0.000745   0.000001  -0.000207  -0.000008  -0.000063  -0.000033
    30  O   -0.000083   0.000002   0.000109  -0.000188  -0.000034   0.000063
    31  H    0.003393   0.000031  -0.000996  -0.000125  -0.000979   0.000003
    32  H   -0.000138  -0.000000   0.000010   0.000016   0.000025   0.000050
    33  H    0.000185   0.000058   0.000362  -0.000593  -0.000578   0.000171
    34  H    0.000169  -0.000000  -0.000009   0.000030  -0.000026   0.000023
    35  H    0.000032   0.000023  -0.002176  -0.000182  -0.001003  -0.000256
    36  H   -0.000059   0.000002  -0.000083   0.000003  -0.000006   0.000042
    37  H    0.001077   0.000052  -0.000652   0.000354  -0.000278  -0.000168
    38  H   -0.000011   0.000003   0.000067  -0.000053  -0.000031  -0.000006
    39  H    0.015771   0.005676   0.010753  -0.022864  -0.014167  -0.002156
               7          8          9         10         11         12
     1  Si  -0.018853   0.000703   0.020213   0.021128  -0.009195   0.001358
     2  O   -0.041116  -0.042928  -0.010250  -0.010190   0.005380   0.001656
     3  O   -0.003617  -0.000465  -0.005947   0.005342   0.003576   0.000004
     4  O   -0.001079  -0.001461  -0.041551  -0.014147  -0.002698   0.000843
     5  O    0.000780   0.000772  -0.003041  -0.005296  -0.001708   0.000024
     6  Ca   0.034899   0.032458   0.048945   0.028582  -0.017486  -0.016007
     7  O    7.902596  -0.000009  -0.002935   0.000730  -0.001583  -0.000973
     8  O   -0.000009   7.917590   0.013847  -0.001583   0.309240   0.322288
     9  O   -0.002935   0.013847   8.814403  -0.007545  -0.011412   0.003346
    10  O    0.000730  -0.001583  -0.007545   8.130617  -0.001607   0.000080
    11  H   -0.001583   0.309240  -0.011412  -0.001607   0.430345  -0.015768
    12  H   -0.000973   0.322288   0.003346   0.000080  -0.015768   0.403509
    13  H    0.312515  -0.004926   0.001303  -0.003925  -0.003809   0.003316
    14  H    0.321062  -0.001020  -0.000357   0.007485   0.003690  -0.000080
    15  H    0.000844  -0.002644  -0.009285  -0.001879   0.005601  -0.001374
    16  H    0.000190   0.001451   0.247786   0.000978  -0.000716   0.001005
    17  H    0.009689  -0.001902  -0.005512   0.187703   0.003395   0.000161
    18  H    0.002013   0.000200   0.002568   0.298670   0.000007  -0.000025
    19  H   -0.001084   0.000456   0.000520  -0.000167  -0.000746   0.000091
    20  H   -0.003293   0.001275   0.002202   0.004500  -0.002948   0.000069
    21  Si   0.000438   0.000203  -0.001921  -0.002647  -0.000707   0.000150
    22  O    0.000000   0.000000   0.000005  -0.000019   0.000018  -0.000000
    23  O   -0.000000   0.000075   0.002280   0.000046  -0.000157  -0.000010
    24  O   -0.000002  -0.000000  -0.000048   0.000243   0.000029  -0.000002
    25  O    0.000002   0.000028   0.000008   0.001076  -0.000673   0.000029
    26  Ca   0.000036   0.000002   0.000017  -0.000062   0.000039   0.000038
    27  O    0.000000   0.000000   0.000000  -0.000000   0.000000   0.000000
    28  O   -0.000000   0.000000  -0.000000  -0.000000   0.000000   0.000000
    29  O   -0.000000   0.000000  -0.000000   0.000000  -0.000000   0.000000
    30  O    0.000000  -0.000000  -0.000001   0.000000  -0.000001   0.000000
    31  H    0.000000  -0.000000   0.000004   0.000005  -0.000002  -0.000000
    32  H   -0.000000   0.000000  -0.000000   0.000000   0.000000  -0.000000
    33  H    0.000000  -0.000000  -0.000013  -0.000003  -0.000002   0.000000
    34  H    0.000000   0.000000   0.000001   0.000000   0.000001  -0.000000
    35  H   -0.000000  -0.000002  -0.000027   0.000184   0.000023  -0.000001
    36  H   -0.000000   0.000000   0.000000  -0.000001  -0.000000  -0.000000
    37  H    0.000001   0.000000  -0.000005  -0.000005   0.000012  -0.000000
    38  H    0.000000  -0.000000  -0.000002   0.000002   0.000000  -0.000000
    39  H   -0.000019  -0.000561  -0.004336   0.000305   0.000928   0.000169
              13         14         15         16         17         18
     1  Si   0.014532  -0.002079   0.012153  -0.005601  -0.006015   0.002955
     2  O   -0.001458   0.003283   0.000789   0.001008  -0.023035   0.000810
     3  O   -0.000552   0.000344   0.002375   0.000228   0.017916  -0.003851
     4  O    0.004548  -0.000305   0.134352   0.001918   0.022795  -0.000600
     5  O   -0.006909  -0.000130   0.025653  -0.000206   0.021618  -0.000928
     6  Ca  -0.026420  -0.013561  -0.014586  -0.017797  -0.010669  -0.009522
     7  O    0.312515   0.321062   0.000844   0.000190   0.009689   0.002013
     8  O   -0.004926  -0.001020  -0.002644   0.001451  -0.001902   0.000200
     9  O    0.001303  -0.000357  -0.009285   0.247786  -0.005512   0.002568
    10  O   -0.003925   0.007485  -0.001879   0.000978   0.187703   0.298670
    11  H   -0.003809   0.003690   0.005601  -0.000716   0.003395   0.000007
    12  H    0.003316  -0.000080  -0.001374   0.001005   0.000161  -0.000025
    13  H    0.435236  -0.011230  -0.000530   0.000269  -0.004989  -0.000976
    14  H   -0.011230   0.403286   0.000267   0.000010  -0.002607   0.001107
    15  H   -0.000530   0.000267   0.466997   0.004361  -0.004549   0.000285
    16  H    0.000269   0.000010   0.004361   0.459069   0.001026   0.000344
    17  H   -0.004989  -0.002607  -0.004549   0.001026   0.504372  -0.004490
    18  H   -0.000976   0.001107   0.000285   0.000344  -0.004490   0.390663
    19  H    0.004945  -0.000237  -0.012611   0.000026  -0.001295   0.000235
    20  H    0.008193  -0.000100   0.003448   0.000328  -0.058557   0.000203
    21  Si  -0.001169   0.000240   0.014681   0.000552   0.006199  -0.001334
    22  O   -0.000003  -0.000000   0.001078  -0.000010   0.000397  -0.000005
    23  O   -0.000146   0.000005  -0.002143   0.000374  -0.000302   0.000028
    24  O    0.000037  -0.000002  -0.001730   0.000011  -0.001625   0.000050
    25  O   -0.000971   0.000021   0.001152   0.000118  -0.000386   0.000533
    26  Ca   0.000015   0.000043   0.000007   0.000096   0.000240   0.000006
    27  O    0.000000   0.000000   0.000042  -0.000000  -0.000003   0.000000
    28  O   -0.000000  -0.000000   0.000013  -0.000000   0.000019  -0.000001
    29  O    0.000000  -0.000000  -0.000019   0.000001  -0.000019  -0.000001
    30  O   -0.000000   0.000000  -0.000095   0.000005  -0.000036   0.000004
    31  H   -0.000006   0.000001   0.000023   0.000000  -0.000110   0.000003
    32  H    0.000001  -0.000000   0.000003  -0.000000  -0.000002  -0.000000
    33  H   -0.000006  -0.000000  -0.000130  -0.000003   0.000070  -0.000006
    34  H    0.000000   0.000000   0.000028  -0.000001  -0.000003   0.000000
    35  H    0.000003   0.000005  -0.000011   0.000003  -0.000720   0.000034
    36  H   -0.000000  -0.000000   0.000002   0.000000  -0.000033   0.000006
    37  H    0.000004  -0.000000   0.000526  -0.000023   0.000199  -0.000000
    38  H   -0.000001   0.000000  -0.000040   0.000001  -0.000001  -0.000001
    39  H    0.000236  -0.000027  -0.029466  -0.001765   0.002060   0.000164
              19         20         21         22         23         24
     1  Si   0.013528   0.039982   0.060573   0.001290  -0.039106   0.009766
     2  O   -0.009233   0.013993   0.019327  -0.000025  -0.002831  -0.000027
     3  O   -0.028612  -0.038766  -0.044792   0.003590   0.002665  -0.003957
     4  O    0.006060  -0.011816  -0.050481  -0.001189   0.058415  -0.006028
     5  O    0.097925  -0.092868  -0.020720   0.003656   0.020868  -0.005062
     6  Ca  -0.001692   0.001047  -0.000166  -0.000021   0.000197   0.000200
     7  O   -0.001084  -0.003293   0.000438   0.000000  -0.000000  -0.000002
     8  O    0.000456   0.001275   0.000203   0.000000   0.000075  -0.000000
     9  O    0.000520   0.002202  -0.001921   0.000005   0.002280  -0.000048
    10  O   -0.000167   0.004500  -0.002647  -0.000019   0.000046   0.000243
    11  H   -0.000746  -0.002948  -0.000707   0.000018  -0.000157   0.000029
    12  H    0.000091   0.000069   0.000150  -0.000000  -0.000010  -0.000002
    13  H    0.004945   0.008193  -0.001169  -0.000003  -0.000146   0.000037
    14  H   -0.000237  -0.000100   0.000240  -0.000000   0.000005  -0.000002
    15  H   -0.012611   0.003448   0.014681   0.001078  -0.002143  -0.001730
    16  H    0.000026   0.000328   0.000552  -0.000010   0.000374   0.000011
    17  H   -0.001295  -0.058557   0.006199   0.000397  -0.000302  -0.001625
    18  H    0.000235   0.000203  -0.001334  -0.000005   0.000028   0.000050
    19  H    0.570752   0.004340  -0.028577  -0.021166  -0.013960   0.011879
    20  H    0.004340   0.690672   0.043082  -0.002580  -0.009391  -0.005618
    21  Si  -0.028577   0.043082  12.470678   0.069475   0.153895   0.015177
    22  O   -0.021166  -0.002580   0.069475   9.252551   0.012877  -0.023536
    23  O   -0.013960  -0.009391   0.153895   0.012877   8.444780  -0.002287
    24  O    0.011879  -0.005618   0.015177  -0.023536  -0.002287   8.561930
    25  O    0.039420  -0.070045   0.193695  -0.020984  -0.069788   0.016347
    26  Ca  -0.000013   0.000532  -0.010514   0.045007   0.004972  -0.031060
    27  O   -0.000131   0.000445  -0.011678  -0.035645  -0.000554  -0.009192
    28  O   -0.001086  -0.001095  -0.006841  -0.036848   0.000094  -0.002350
    29  O   -0.000083  -0.000431   0.014022  -0.009797  -0.001178  -0.063494
    30  O    0.000348  -0.000816  -0.019185   0.024514  -0.004902   0.024923
    31  H   -0.003943   0.003313   0.026238  -0.032182  -0.004073   0.001346
    32  H    0.000261  -0.000008   0.001015   0.000712   0.000789   0.000336
    33  H    0.002126  -0.002944   0.019038  -0.041524  -0.012367   0.019083
    34  H   -0.000096   0.000099   0.003480   0.000603  -0.000439  -0.000393
    35  H    0.001213   0.003799  -0.007630  -0.018788   0.027100   0.223160
    36  H   -0.000124   0.000735   0.002111  -0.001036  -0.000037   0.002222
    37  H   -0.001551   0.002292   0.061150  -0.042118  -0.009589  -0.025534
    38  H   -0.000001  -0.000383   0.006520  -0.005897  -0.002676  -0.011593
    39  H    0.008506  -0.025064  -0.046411  -0.003487   0.188023   0.019232
              25         26         27         28         29         30
     1  Si  -0.021569  -0.002952   0.000086   0.000404   0.000745  -0.000083
     2  O    0.000451  -0.000121  -0.000000   0.000001   0.000001   0.000002
     3  O    0.070555  -0.000269  -0.000001   0.000066  -0.000207   0.000109
     4  O   -0.008703  -0.000247   0.000007  -0.000019  -0.000008  -0.000188
     5  O    0.012186   0.001526   0.000030   0.000137  -0.000063  -0.000034
     6  Ca  -0.001108  -0.000256  -0.000031   0.000015  -0.000033   0.000063
     7  O    0.000002   0.000036   0.000000  -0.000000  -0.000000   0.000000
     8  O    0.000028   0.000002   0.000000   0.000000   0.000000  -0.000000
     9  O    0.000008   0.000017   0.000000  -0.000000  -0.000000  -0.000001
    10  O    0.001076  -0.000062  -0.000000  -0.000000   0.000000   0.000000
    11  H   -0.000673   0.000039   0.000000   0.000000  -0.000000  -0.000001
    12  H    0.000029   0.000038   0.000000   0.000000   0.000000   0.000000
    13  H   -0.000971   0.000015   0.000000  -0.000000   0.000000  -0.000000
    14  H    0.000021   0.000043   0.000000  -0.000000  -0.000000   0.000000
    15  H    0.001152   0.000007   0.000042   0.000013  -0.000019  -0.000095
    16  H    0.000118   0.000096  -0.000000  -0.000000   0.000001   0.000005
    17  H   -0.000386   0.000240  -0.000003   0.000019  -0.000019  -0.000036
    18  H    0.000533   0.000006   0.000000  -0.000001  -0.000001   0.000004
    19  H    0.039420  -0.000013  -0.000131  -0.001086  -0.000083   0.000348
    20  H   -0.070045   0.000532   0.000445  -0.001095  -0.000431  -0.000816
    21  Si   0.193695  -0.010514  -0.011678  -0.006841   0.014022  -0.019185
    22  O   -0.020984   0.045007  -0.035645  -0.036848  -0.009797   0.024514
    23  O   -0.069788   0.004972  -0.000554   0.000094  -0.001178  -0.004902
    24  O    0.016347  -0.031060  -0.009192  -0.002350  -0.063494   0.024923
    25  O    8.881534  -0.006686  -0.000664   0.000214  -0.004892   0.001333
    26  Ca  -0.006686  18.488733   0.029772   0.033442   0.049542   0.004864
    27  O   -0.000664   0.029772   8.028402  -0.000164  -0.003654   0.033652
    28  O    0.000214   0.033442  -0.000164   7.993926   0.010625  -0.002602
    29  O   -0.004892   0.049542  -0.003654   0.010625   8.829496  -0.004760
    30  O    0.001333   0.004864   0.033652  -0.002602  -0.004760   8.013579
    31  H   -0.007565  -0.008248   0.000137   0.277428  -0.015846   0.003524
    32  H   -0.000860  -0.014877  -0.001329   0.319858   0.002169  -0.000241
    33  H    0.002785  -0.017184   0.266885  -0.003502   0.003620  -0.017923
    34  H    0.000296  -0.015046   0.304703  -0.000959  -0.000288   0.002802
    35  H   -0.034290  -0.010509   0.003549  -0.005773   0.014950  -0.000738
    36  H    0.000185  -0.017495   0.000144  -0.001006   0.246887  -0.002700
    37  H    0.002403  -0.003995  -0.006673   0.001219   0.002514   0.205480
    38  H    0.000120  -0.011770  -0.001923   0.000035  -0.000982   0.308345
    39  H   -0.011686  -0.000739  -0.001577   0.000010  -0.000237   0.003648
              31         32         33         34         35         36
     1  Si   0.003393  -0.000138   0.000185   0.000169   0.000032  -0.000059
     2  O    0.000031  -0.000000   0.000058  -0.000000   0.000023   0.000002
     3  O   -0.000996   0.000010   0.000362  -0.000009  -0.002176  -0.000083
     4  O   -0.000125   0.000016  -0.000593   0.000030  -0.000182   0.000003
     5  O   -0.000979   0.000025  -0.000578  -0.000026  -0.001003  -0.000006
     6  Ca   0.000003   0.000050   0.000171   0.000023  -0.000256   0.000042
     7  O    0.000000  -0.000000   0.000000   0.000000  -0.000000  -0.000000
     8  O   -0.000000   0.000000  -0.000000   0.000000  -0.000002   0.000000
     9  O    0.000004  -0.000000  -0.000013   0.000001  -0.000027   0.000000
    10  O    0.000005   0.000000  -0.000003   0.000000   0.000184  -0.000001
    11  H   -0.000002   0.000000  -0.000002   0.000001   0.000023  -0.000000
    12  H   -0.000000  -0.000000   0.000000  -0.000000  -0.000001  -0.000000
    13  H   -0.000006   0.000001  -0.000006   0.000000   0.000003  -0.000000
    14  H    0.000001  -0.000000  -0.000000   0.000000   0.000005  -0.000000
    15  H    0.000023   0.000003  -0.000130   0.000028  -0.000011   0.000002
    16  H    0.000000  -0.000000  -0.000003  -0.000001   0.000003   0.000000
    17  H   -0.000110  -0.000002   0.000070  -0.000003  -0.000720  -0.000033
    18  H    0.000003  -0.000000  -0.000006   0.000000   0.000034   0.000006
    19  H   -0.003943   0.000261   0.002126  -0.000096   0.001213  -0.000124
    20  H    0.003313  -0.000008  -0.002944   0.000099   0.003799   0.000735
    21  Si   0.026238   0.001015   0.019038   0.003480  -0.007630   0.002111
    22  O   -0.032182   0.000712  -0.041524   0.000603  -0.018788  -0.001036
    23  O   -0.004073   0.000789  -0.012367  -0.000439   0.027100  -0.000037
    24  O    0.001346   0.000336   0.019083  -0.000393   0.223160   0.002222
    25  O   -0.007565  -0.000860   0.002785   0.000296  -0.034290   0.000185
    26  Ca  -0.008248  -0.014877  -0.017184  -0.015046  -0.010509  -0.017495
    27  O    0.000137  -0.001329   0.266885   0.304703   0.003549   0.000144
    28  O    0.277428   0.319858  -0.003502  -0.000959  -0.005773  -0.001006
    29  O   -0.015846   0.002169   0.003620  -0.000288   0.014950   0.246887
    30  O    0.003524  -0.000241  -0.017923   0.002802  -0.000738  -0.002700
    31  H    0.455406  -0.013505  -0.010945   0.003325   0.008921   0.001349
    32  H   -0.013505   0.402662   0.003729  -0.000000   0.000816   0.000314
    33  H   -0.010945   0.003729   0.465158  -0.007242  -0.004247  -0.000464
    34  H    0.003325  -0.000000  -0.007242   0.408751   0.000072   0.000055
    35  H    0.008921   0.000816  -0.004247   0.000072   0.504425  -0.000197
    36  H    0.001349   0.000314  -0.000464   0.000055  -0.000197   0.449881
    37  H   -0.001827   0.000163   0.000823   0.001219  -0.014095   0.003813
    38  H   -0.000302   0.000025   0.002366  -0.002265   0.004181  -0.000060
    39  H   -0.000337  -0.000005   0.005829  -0.000417   0.002353  -0.000022
              37         38         39
     1  Si   0.001077  -0.000011   0.015771
     2  O    0.000052   0.000003   0.005676
     3  O   -0.000652   0.000067   0.010753
     4  O    0.000354  -0.000053  -0.022864
     5  O   -0.000278  -0.000031  -0.014167
     6  Ca  -0.000168  -0.000006  -0.002156
     7  O    0.000001   0.000000  -0.000019
     8  O    0.000000  -0.000000  -0.000561
     9  O   -0.000005  -0.000002  -0.004336
    10  O   -0.000005   0.000002   0.000305
    11  H    0.000012   0.000000   0.000928
    12  H   -0.000000  -0.000000   0.000169
    13  H    0.000004  -0.000001   0.000236
    14  H   -0.000000   0.000000  -0.000027
    15  H    0.000526  -0.000040  -0.029466
    16  H   -0.000023   0.000001  -0.001765
    17  H    0.000199  -0.000001   0.002060
    18  H   -0.000000  -0.000001   0.000164
    19  H   -0.001551  -0.000001   0.008506
    20  H    0.002292  -0.000383  -0.025064
    21  Si   0.061150   0.006520  -0.046411
    22  O   -0.042118  -0.005897  -0.003487
    23  O   -0.009589  -0.002676   0.188023
    24  O   -0.025534  -0.011593   0.019232
    25  O    0.002403   0.000120  -0.011686
    26  Ca  -0.003995  -0.011770  -0.000739
    27  O   -0.006673  -0.001923  -0.001577
    28  O    0.001219   0.000035   0.000010
    29  O    0.002514  -0.000982  -0.000237
    30  O    0.205480   0.308345   0.003648
    31  H   -0.001827  -0.000302  -0.000337
    32  H    0.000163   0.000025  -0.000005
    33  H    0.000823   0.002366   0.005829
    34  H    0.001219  -0.002265  -0.000417
    35  H   -0.014095   0.004181   0.002353
    36  H    0.003813  -0.000060  -0.000022
    37  H    0.521350   0.005302  -0.003546
    38  H    0.005302   0.401289   0.001243
    39  H   -0.003546   0.001243   0.516509
 Mulliken charges:
               1
     1  Si   1.103120
     2  O   -0.900581
     3  O   -0.928674
     4  O   -0.716755
     5  O   -0.776396
     6  Ca   1.460517
     7  O   -0.511231
     8  O   -0.543090
     9  O   -1.053259
    10  O   -0.638605
    11  H    0.308933
    12  H    0.296106
    13  H    0.282870
    14  H    0.290887
    15  H    0.406408
    16  H    0.304963
    17  H    0.349003
    18  H    0.320850
    19  H    0.363774
    20  H    0.502176
    21  Si   1.072835
    22  O   -1.118912
    23  O   -0.741548
    24  O   -0.712430
    25  O   -0.963624
    26  Ca   1.493114
    27  O   -0.594635
    28  O   -0.575261
    29  O   -1.068582
    30  O   -0.572889
    31  H    0.316543
    32  H    0.298011
    33  H    0.327387
    34  H    0.301528
    35  H    0.305799
    36  H    0.315572
    37  H    0.300109
    38  H    0.308494
    39  H    0.387474
 Sum of Mulliken charges =  -1.00000
 Mulliken charges with hydrogens summed into heavy atoms:
               1
     1  Si   1.103120
     2  O   -0.900581
     3  O   -0.426498
     4  O   -0.310347
     5  O   -0.412622
     6  Ca   1.460517
     7  O    0.062526
     8  O    0.061948
     9  O   -0.748296
    10  O    0.031247
    21  Si   1.072835
    22  O   -1.118912
    23  O   -0.354074
    24  O   -0.406631
    25  O   -0.963624
    26  Ca   1.493114
    27  O    0.034281
    28  O    0.039292
    29  O   -0.753009
    30  O    0.035714
 Electronic spatial extent (au):  <R**2>=          18960.3636
 Charge=             -1.0000 electrons
 Dipole moment (field-independent basis, Debye):
    X=            -12.8976    Y=              9.8213    Z=             -5.1325  Tot=             17.0044
 Quadrupole moment (field-independent basis, Debye-Ang):
   XX=           -107.3819   YY=           -157.5761   ZZ=           -161.0654
   XY=             -3.6906   XZ=             18.9706   YZ=              2.1928
 Traceless Quadrupole moment (field-independent basis, Debye-Ang):
   XX=             34.6259   YY=            -15.5683   ZZ=            -19.0576
   XY=             -3.6906   XZ=             18.9706   YZ=              2.1928
 Octapole moment (field-independent basis, Debye-Ang**2):
  XXX=           -408.5102  YYY=            150.9631  ZZZ=            325.8797  XYY=           -376.5165
  XXY=            146.3223  XXZ=            -18.3279  XZZ=           -543.9425  YZZ=             75.0524
  YYZ=             65.8634  XYZ=             87.8321
 Hexadecapole moment (field-independent basis, Debye-Ang**3):
 XXXX=         -10635.1709 YYYY=          -1533.7334 ZZZZ=          -1833.3858 XXXY=            980.7196
 XXXZ=             42.8047 YYYX=           1041.7430 YYYZ=            -41.6895 ZZZX=           1415.1709
 ZZZY=           -104.6821 XXYY=          -3051.8484 XXZZ=          -4050.4824 YYZZ=           -535.3574
 XXYZ=            562.5638 YYXZ=            238.7045 ZZXY=            293.9346
 N-N= 2.812358278093D+03 E-N=-1.312859853461D+04  KE= 3.143484508391D+03
 ******************************Gaussian NBO Version 3.1******************************
             N A T U R A L   A T O M I C   O R B I T A L   A N D
          N A T U R A L   B O N D   O R B I T A L   A N A L Y S I S
 ******************************Gaussian NBO Version 3.1******************************

       /RESON  / : Allow strongly delocalized NBO set
       /NLMO   / : Form Natural Localized Molecular Orbitals
       /BNDIDX / : Print bond indices based on the NAO density matrix

 Analyzing the SCF density

 Job title: c2sdimerts1nbo                                                  

 Storage needed:   1199716 in NPA,   1596101 in NBO,   1199159 in NLMO (2097143849 available)
 GSVD:  LWork=       38617 too small for GESVD, short by      676673 words or      676673 for optimal perf.


 NATURAL POPULATIONS:  Natural atomic orbital occupancies 
                                                          
   NAO  Atom  No  lang   Type(AO)    Occupancy      Energy
 ----------------------------------------------------------
     1   Si    1  S      Cor( 1S)     2.00000     -65.46472
     2   Si    1  S      Cor( 2S)     1.99962      -6.09993
     3   Si    1  S      Val( 3S)     0.49739       0.04509
     4   Si    1  S      Ryd( 5S)     0.00241       1.64821
     5   Si    1  S      Ryd( 6S)     0.00054       8.33969
     6   Si    1  S      Ryd( 4S)     0.00029       0.56329
     7   Si    1  S      Ryd( 7S)     0.00000     135.95876
     8   Si    1  px     Cor( 2p)     1.99989      -3.73153
     9   Si    1  px     Val( 3p)     0.33553       0.18977
    10   Si    1  px     Ryd( 6p)     0.00759       1.13216
    11   Si    1  px     Ryd( 5p)     0.00058       0.89363
    12   Si    1  px     Ryd( 4p)     0.00061       0.79755
    13   Si    1  px     Ryd( 7p)     0.00000      11.46055
    14   Si    1  py     Cor( 2p)     1.99992      -3.73372
    15   Si    1  py     Val( 3p)     0.35653       0.17109
    16   Si    1  py     Ryd( 6p)     0.00564       1.14317
    17   Si    1  py     Ryd( 5p)     0.00066       0.72493
    18   Si    1  py     Ryd( 4p)     0.00028       0.48652
    19   Si    1  py     Ryd( 7p)     0.00000      11.42666
    20   Si    1  pz     Cor( 2p)     1.99988      -3.73470
    21   Si    1  pz     Val( 3p)     0.34848       0.16792
    22   Si    1  pz     Ryd( 6p)     0.00705       1.14730
    23   Si    1  pz     Ryd( 5p)     0.00068       0.72233
    24   Si    1  pz     Ryd( 4p)     0.00026       0.44442
    25   Si    1  pz     Ryd( 7p)     0.00000      11.40097
    26   Si    1  dxy    Ryd( 3d)     0.01184       0.96348
    27   Si    1  dxz    Ryd( 3d)     0.01084       0.93001
    28   Si    1  dyz    Ryd( 3d)     0.00994       0.96101
    29   Si    1  dx2y2  Ryd( 3d)     0.01113       1.08740
    30   Si    1  dz2    Ryd( 3d)     0.00961       1.07521

    31    O    2  S      Cor( 1S)     1.99975     -18.93588
    32    O    2  S      Val( 2S)     1.82514      -1.07017
    33    O    2  S      Ryd( 3S)     0.00113       1.10549
    34    O    2  S      Ryd( 4S)     0.00028       2.23883
    35    O    2  S      Ryd( 5S)     0.00000      49.83946
    36    O    2  px     Val( 2p)     1.79839      -0.41141
    37    O    2  px     Ryd( 3p)     0.00129       1.08984
    38    O    2  px     Ryd( 4p)     0.00036       1.87691
    39    O    2  px     Ryd( 5p)     0.00002       5.12548
    40    O    2  py     Val( 2p)     1.90573      -0.35409
    41    O    2  py     Ryd( 3p)     0.00164       0.55902
    42    O    2  py     Ryd( 4p)     0.00026       1.60082
    43    O    2  py     Ryd( 5p)     0.00001       5.08251
    44    O    2  pz     Val( 2p)     1.89708      -0.35070
    45    O    2  pz     Ryd( 3p)     0.00111       0.61408
    46    O    2  pz     Ryd( 4p)     0.00020       1.62120
    47    O    2  pz     Ryd( 5p)     0.00001       5.08318
    48    O    2  dxy    Ryd( 3d)     0.00035       3.08453
    49    O    2  dxz    Ryd( 3d)     0.00036       3.10021
    50    O    2  dyz    Ryd( 3d)     0.00007       3.01882
    51    O    2  dx2y2  Ryd( 3d)     0.00074       3.32965
    52    O    2  dz2    Ryd( 3d)     0.00026       3.09094

    53    O    3  S      Cor( 1S)     1.99975     -18.98740
    54    O    3  S      Val( 2S)     1.75077      -1.03909
    55    O    3  S      Ryd( 4S)     0.00116       1.53507
    56    O    3  S      Ryd( 3S)     0.00048       1.36895
    57    O    3  S      Ryd( 5S)     0.00000      49.62718
    58    O    3  px     Val( 2p)     1.69804      -0.36303
    59    O    3  px     Ryd( 3p)     0.00104       0.93217
    60    O    3  px     Ryd( 4p)     0.00040       1.33791
    61    O    3  px     Ryd( 5p)     0.00003       5.35396
    62    O    3  py     Val( 2p)     1.91445      -0.37937
    63    O    3  py     Ryd( 3p)     0.00134       0.53365
    64    O    3  py     Ryd( 4p)     0.00019       1.24118
    65    O    3  py     Ryd( 5p)     0.00000       5.14337
    66    O    3  pz     Val( 2p)     1.81859      -0.41088
    67    O    3  pz     Ryd( 3p)     0.00111       0.87994
    68    O    3  pz     Ryd( 4p)     0.00044       1.34271
    69    O    3  pz     Ryd( 5p)     0.00002       5.13609
    70    O    3  dxy    Ryd( 3d)     0.00034       3.20233
    71    O    3  dxz    Ryd( 3d)     0.00040       3.16118
    72    O    3  dyz    Ryd( 3d)     0.00040       3.06484
    73    O    3  dx2y2  Ryd( 3d)     0.00070       3.37747
    74    O    3  dz2    Ryd( 3d)     0.00082       3.37635

    75    O    4  S      Cor( 1S)     1.99976     -18.97291
    76    O    4  S      Val( 2S)     1.75069      -1.03495
    77    O    4  S      Ryd( 3S)     0.00063       0.92913
    78    O    4  S      Ryd( 4S)     0.00038       2.15299
    79    O    4  S      Ryd( 5S)     0.00000      49.81908
    80    O    4  px     Val( 2p)     1.84066      -0.37589
    81    O    4  px     Ryd( 3p)     0.00119       0.79402
    82    O    4  px     Ryd( 4p)     0.00042       1.37416
    83    O    4  px     Ryd( 5p)     0.00002       5.27810
    84    O    4  py     Val( 2p)     1.68382      -0.38256
    85    O    4  py     Ryd( 3p)     0.00151       0.83981
    86    O    4  py     Ryd( 4p)     0.00033       1.35788
    87    O    4  py     Ryd( 5p)     0.00002       5.25829
    88    O    4  pz     Val( 2p)     1.91039      -0.37376
    89    O    4  pz     Ryd( 3p)     0.00088       0.40386
    90    O    4  pz     Ryd( 4p)     0.00010       1.25857
    91    O    4  pz     Ryd( 5p)     0.00001       5.14555
    92    O    4  dxy    Ryd( 3d)     0.00092       3.42755
    93    O    4  dxz    Ryd( 3d)     0.00076       3.14488
    94    O    4  dyz    Ryd( 3d)     0.00041       3.18345
    95    O    4  dx2y2  Ryd( 3d)     0.00035       3.20772
    96    O    4  dz2    Ryd( 3d)     0.00052       3.16460

    97    O    5  S      Cor( 1S)     1.99978     -18.97144
    98    O    5  S      Val( 2S)     1.75090      -1.04043
    99    O    5  S      Ryd( 3S)     0.00088       0.91577
   100    O    5  S      Ryd( 4S)     0.00025       2.26272
   101    O    5  S      Ryd( 5S)     0.00000      49.76218
   102    O    5  px     Val( 2p)     1.67678      -0.35305
   103    O    5  px     Ryd( 3p)     0.00124       0.78141
   104    O    5  px     Ryd( 4p)     0.00019       1.11973
   105    O    5  px     Ryd( 5p)     0.00002       5.34987
   106    O    5  py     Val( 2p)     1.86169      -0.38522
   107    O    5  py     Ryd( 3p)     0.00079       0.62032
   108    O    5  py     Ryd( 4p)     0.00015       1.13174
   109    O    5  py     Ryd( 5p)     0.00001       5.15774
   110    O    5  pz     Val( 2p)     1.86638      -0.38777
   111    O    5  pz     Ryd( 3p)     0.00066       0.53920
   112    O    5  pz     Ryd( 4p)     0.00012       1.14043
   113    O    5  pz     Ryd( 5p)     0.00003       5.18619
   114    O    5  dxy    Ryd( 3d)     0.00029       3.21037
   115    O    5  dxz    Ryd( 3d)     0.00102       3.37708
   116    O    5  dyz    Ryd( 3d)     0.00085       3.20196
   117    O    5  dx2y2  Ryd( 3d)     0.00059       3.29987
   118    O    5  dz2    Ryd( 3d)     0.00074       3.08372

   119   Ca    6  S      Cor( 1S)     2.00000    -140.10054
   120   Ca    6  S      Cor( 2S)     2.00000     -20.32832
   121   Ca    6  S      Cor( 3S)     1.99887      -2.33869
   122   Ca    6  S      Val( 4S)     0.05781       0.39249
   123   Ca    6  S      Ryd( 7S)     0.00024       1.77963
   124   Ca    6  S      Ryd( 6S)     0.00015       0.51440
   125   Ca    6  S      Ryd( 5S)     0.00004       0.43151
   126   Ca    6  S      Ryd( 8S)     0.00000      28.49685
   127   Ca    6  S      Ryd( 9S)     0.00000     302.04363
   128   Ca    6  px     Cor( 2p)     2.00000     -12.58322
   129   Ca    6  px     Cor( 3p)     1.99884      -1.09701
   130   Ca    6  px     Ryd( 7p)     0.00045       1.04540
   131   Ca    6  px     Ryd( 5p)     0.00012       0.24419
   132   Ca    6  px     Ryd( 6p)     0.00014       0.85349
   133   Ca    6  px     Ryd( 4p)     0.00004       0.08120
   134   Ca    6  px     Ryd( 8p)     0.00002       5.97378
   135   Ca    6  px     Ryd( 9p)     0.00000     107.02790
   136   Ca    6  py     Cor( 2p)     2.00000     -12.58313
   137   Ca    6  py     Cor( 3p)     1.99919      -1.09613
   138   Ca    6  py     Ryd( 7p)     0.00046       0.96291
   139   Ca    6  py     Ryd( 5p)     0.00022       0.26266
   140   Ca    6  py     Ryd( 6p)     0.00009       0.88291
   141   Ca    6  py     Ryd( 4p)     0.00003       0.07708
   142   Ca    6  py     Ryd( 8p)     0.00003       6.01436
   143   Ca    6  py     Ryd( 9p)     0.00000     107.02962
   144   Ca    6  pz     Cor( 2p)     2.00000     -12.58338
   145   Ca    6  pz     Cor( 3p)     1.99930      -1.09939
   146   Ca    6  pz     Ryd( 6p)     0.00055       0.75617
   147   Ca    6  pz     Ryd( 5p)     0.00017       0.25647
   148   Ca    6  pz     Ryd( 7p)     0.00009       0.78032
   149   Ca    6  pz     Ryd( 4p)     0.00003       0.07648
   150   Ca    6  pz     Ryd( 8p)     0.00002       5.98911
   151   Ca    6  pz     Ryd( 9p)     0.00000     107.02847
   152   Ca    6  dxy    Ryd( 3d)     0.01711       0.33174
   153   Ca    6  dxy    Ryd( 4d)     0.00011       1.45268
   154   Ca    6  dxz    Ryd( 3d)     0.00841       0.30761
   155   Ca    6  dxz    Ryd( 4d)     0.00012       1.39093
   156   Ca    6  dyz    Ryd( 3d)     0.00751       0.29618
   157   Ca    6  dyz    Ryd( 4d)     0.00012       1.36031
   158   Ca    6  dx2y2  Ryd( 3d)     0.00692       0.28007
   159   Ca    6  dx2y2  Ryd( 4d)     0.00012       1.35346
   160   Ca    6  dz2    Ryd( 3d)     0.01126       0.31468
   161   Ca    6  dz2    Ryd( 4d)     0.00012       1.42375

   162    O    7  S      Cor( 1S)     1.99982     -19.02878
   163    O    7  S      Val( 2S)     1.74293      -1.04167
   164    O    7  S      Ryd( 4S)     0.00083       1.60563
   165    O    7  S      Ryd( 3S)     0.00027       1.01901
   166    O    7  S      Ryd( 5S)     0.00000      49.79846
   167    O    7  px     Val( 2p)     1.77222      -0.38551
   168    O    7  px     Ryd( 3p)     0.00082       0.72996
   169    O    7  px     Ryd( 4p)     0.00032       0.76126
   170    O    7  px     Ryd( 5p)     0.00003       5.24320
   171    O    7  py     Val( 2p)     1.89758      -0.40275
   172    O    7  py     Ryd( 3p)     0.00278       0.76856
   173    O    7  py     Ryd( 4p)     0.00013       0.84537
   174    O    7  py     Ryd( 5p)     0.00002       5.19219
   175    O    7  pz     Val( 2p)     1.59307      -0.34766
   176    O    7  pz     Ryd( 4p)     0.00303       0.83477
   177    O    7  pz     Ryd( 3p)     0.00005       0.74430
   178    O    7  pz     Ryd( 5p)     0.00001       5.33037
   179    O    7  dxy    Ryd( 3d)     0.00086       3.11177
   180    O    7  dxz    Ryd( 3d)     0.00091       3.40821
   181    O    7  dyz    Ryd( 3d)     0.00070       3.35369
   182    O    7  dx2y2  Ryd( 3d)     0.00103       3.26278
   183    O    7  dz2    Ryd( 3d)     0.00058       3.33449

   184    O    8  S      Cor( 1S)     1.99982     -19.03126
   185    O    8  S      Val( 2S)     1.74146      -1.04265
   186    O    8  S      Ryd( 4S)     0.00081       1.59459
   187    O    8  S      Ryd( 3S)     0.00029       1.05375
   188    O    8  S      Ryd( 5S)     0.00000      49.78187
   189    O    8  px     Val( 2p)     1.79345      -0.38984
   190    O    8  px     Ryd( 3p)     0.00071       0.70806
   191    O    8  px     Ryd( 4p)     0.00027       0.78206
   192    O    8  px     Ryd( 5p)     0.00004       5.23623
   193    O    8  py     Val( 2p)     1.66593      -0.36191
   194    O    8  py     Ryd( 4p)     0.00296       0.79304
   195    O    8  py     Ryd( 3p)     0.00006       0.74426
   196    O    8  py     Ryd( 5p)     0.00000       5.29270
   197    O    8  pz     Val( 2p)     1.80800      -0.39202
   198    O    8  pz     Ryd( 3p)     0.00245       0.79117
   199    O    8  pz     Ryd( 4p)     0.00017       0.84945
   200    O    8  pz     Ryd( 5p)     0.00002       5.25800
   201    O    8  dxy    Ryd( 3d)     0.00113       3.46246
   202    O    8  dxz    Ryd( 3d)     0.00086       3.14501
   203    O    8  dyz    Ryd( 3d)     0.00079       3.46060
   204    O    8  dx2y2  Ryd( 3d)     0.00065       3.19722
   205    O    8  dz2    Ryd( 3d)     0.00055       3.19207

   206    O    9  S      Cor( 1S)     1.99987     -18.98227
   207    O    9  S      Val( 2S)     1.82959      -0.99088
   208    O    9  S      Ryd( 4S)     0.00095       1.54602
   209    O    9  S      Ryd( 3S)     0.00038       1.24940
   210    O    9  S      Ryd( 5S)     0.00000      49.81757
   211    O    9  px     Val( 2p)     1.92148      -0.33870
   212    O    9  px     Ryd( 4p)     0.00059       1.29618
   213    O    9  px     Ryd( 3p)     0.00037       0.76957
   214    O    9  px     Ryd( 5p)     0.00001       5.14115
   215    O    9  py     Val( 2p)     1.64716      -0.28955
   216    O    9  py     Ryd( 4p)     0.00105       1.29183
   217    O    9  py     Ryd( 3p)     0.00035       0.80762
   218    O    9  py     Ryd( 5p)     0.00001       5.35976
   219    O    9  pz     Val( 2p)     1.93542      -0.32998
   220    O    9  pz     Ryd( 4p)     0.00038       1.15985
   221    O    9  pz     Ryd( 3p)     0.00036       0.56951
   222    O    9  pz     Ryd( 5p)     0.00001       5.13642
   223    O    9  dxy    Ryd( 3d)     0.00033       3.26128
   224    O    9  dxz    Ryd( 3d)     0.00015       3.06225
   225    O    9  dyz    Ryd( 3d)     0.00065       3.30037
   226    O    9  dx2y2  Ryd( 3d)     0.00077       3.34049
   227    O    9  dz2    Ryd( 3d)     0.00032       3.13278

   228    O   10  S      Cor( 1S)     1.99981     -19.03849
   229    O   10  S      Val( 2S)     1.73586      -1.04670
   230    O   10  S      Ryd( 4S)     0.00073       1.48870
   231    O   10  S      Ryd( 3S)     0.00038       1.19754
   232    O   10  S      Ryd( 5S)     0.00000      49.73511
   233    O   10  px     Val( 2p)     1.77322      -0.39906
   234    O   10  px     Ryd( 3p)     0.00097       0.74900
   235    O   10  px     Ryd( 4p)     0.00021       0.87073
   236    O   10  px     Ryd( 5p)     0.00004       5.26583
   237    O   10  py     Val( 2p)     1.80174      -0.39019
   238    O   10  py     Ryd( 3p)     0.00235       0.75326
   239    O   10  py     Ryd( 4p)     0.00031       0.88094
   240    O   10  py     Ryd( 5p)     0.00000       5.18211
   241    O   10  pz     Val( 2p)     1.70820      -0.38132
   242    O   10  pz     Ryd( 3p)     0.00252       0.79718
   243    O   10  pz     Ryd( 4p)     0.00021       0.87118
   244    O   10  pz     Ryd( 5p)     0.00001       5.27128
   245    O   10  dxy    Ryd( 3d)     0.00089       3.29773
   246    O   10  dxz    Ryd( 3d)     0.00074       3.28881
   247    O   10  dyz    Ryd( 3d)     0.00074       3.43930
   248    O   10  dx2y2  Ryd( 3d)     0.00076       3.19218
   249    O   10  dz2    Ryd( 3d)     0.00047       3.20999

   250    H   11  S      Val( 1S)     0.48213       0.18480
   251    H   11  S      Ryd( 4S)     0.00183       1.89969
   252    H   11  S      Ryd( 2S)     0.00041       0.74370
   253    H   11  S      Ryd( 3S)     0.00027       0.80036
   254    H   11  px     Ryd( 2p)     0.00098       2.31572
   255    H   11  py     Ryd( 2p)     0.00094       2.08652
   256    H   11  pz     Ryd( 2p)     0.00081       1.83784

   257    H   12  S      Val( 1S)     0.51069       0.18903
   258    H   12  S      Ryd( 4S)     0.00071       1.63840
   259    H   12  S      Ryd( 2S)     0.00022       0.68783
   260    H   12  S      Ryd( 3S)     0.00018       0.79782
   261    H   12  px     Ryd( 2p)     0.00115       1.72907
   262    H   12  py     Ryd( 2p)     0.00075       2.16752
   263    H   12  pz     Ryd( 2p)     0.00081       2.14899

   264    H   13  S      Val( 1S)     0.48322       0.18655
   265    H   13  S      Ryd( 4S)     0.00184       1.91615
   266    H   13  S      Ryd( 2S)     0.00049       0.65094
   267    H   13  S      Ryd( 3S)     0.00032       0.87829
   268    H   13  px     Ryd( 2p)     0.00103       2.41660
   269    H   13  py     Ryd( 2p)     0.00090       1.81899
   270    H   13  pz     Ryd( 2p)     0.00090       2.01757

   271    H   14  S      Val( 1S)     0.51218       0.18889
   272    H   14  S      Ryd( 4S)     0.00064       1.68777
   273    H   14  S      Ryd( 2S)     0.00027       0.67685
   274    H   14  S      Ryd( 3S)     0.00021       0.79970
   275    H   14  px     Ryd( 2p)     0.00116       1.70151
   276    H   14  py     Ryd( 2p)     0.00096       1.88138
   277    H   14  pz     Ryd( 2p)     0.00067       2.47346

   278    H   15  S      Val( 1S)     0.46714       0.21822
   279    H   15  S      Ryd( 4S)     0.00413       2.05779
   280    H   15  S      Ryd( 2S)     0.00044       0.45489
   281    H   15  S      Ryd( 3S)     0.00021       1.24127
   282    H   15  px     Ryd( 2p)     0.00079       2.17455
   283    H   15  py     Ryd( 2p)     0.00092       2.34260
   284    H   15  pz     Ryd( 2p)     0.00079       1.84668

   285    H   16  S      Val( 1S)     0.54191       0.24246
   286    H   16  S      Ryd( 4S)     0.00072       1.97070
   287    H   16  S      Ryd( 3S)     0.00025       0.67482
   288    H   16  S      Ryd( 2S)     0.00010       0.56864
   289    H   16  px     Ryd( 2p)     0.00064       1.79205
   290    H   16  py     Ryd( 2p)     0.00049       2.56339
   291    H   16  pz     Ryd( 2p)     0.00089       1.80718

   292    H   17  S      Val( 1S)     0.47530       0.19218
   293    H   17  S      Ryd( 4S)     0.00228       1.81910
   294    H   17  S      Ryd( 3S)     0.00037       1.03653
   295    H   17  S      Ryd( 2S)     0.00024       0.76924
   296    H   17  px     Ryd( 2p)     0.00084       2.38762
   297    H   17  py     Ryd( 2p)     0.00091       1.91851
   298    H   17  pz     Ryd( 2p)     0.00065       1.98419

   299    H   18  S      Val( 1S)     0.50627       0.18820
   300    H   18  S      Ryd( 4S)     0.00064       1.71628
   301    H   18  S      Ryd( 3S)     0.00027       1.05809
   302    H   18  S      Ryd( 2S)     0.00011       0.41901
   303    H   18  px     Ryd( 2p)     0.00092       1.75465
   304    H   18  py     Ryd( 2p)     0.00086       1.97848
   305    H   18  pz     Ryd( 2p)     0.00076       2.31566

   306    H   19  S      Val( 1S)     0.47029       0.22190
   307    H   19  S      Ryd( 4S)     0.00265       2.11033
   308    H   19  S      Ryd( 2S)     0.00063       0.58664
   309    H   19  S      Ryd( 3S)     0.00033       1.05575
   310    H   19  px     Ryd( 2p)     0.00100       2.51947
   311    H   19  py     Ryd( 2p)     0.00107       1.79153
   312    H   19  pz     Ryd( 2p)     0.00100       1.98771

   313    H   20  S      Val( 1S)     0.45989       0.22548
   314    H   20  S      Ryd( 4S)     0.00317       2.00947
   315    H   20  S      Ryd( 2S)     0.00031       0.73908
   316    H   20  S      Ryd( 3S)     0.00020       1.00703
   317    H   20  px     Ryd( 2p)     0.00102       2.66283
   318    H   20  py     Ryd( 2p)     0.00091       1.79420
   319    H   20  pz     Ryd( 2p)     0.00071       1.90545

   320   Si   21  S      Cor( 1S)     2.00000     -65.42161
   321   Si   21  S      Cor( 2S)     1.99961      -6.08703
   322   Si   21  S      Val( 3S)     0.48893       0.11226
   323   Si   21  S      Ryd( 4S)     0.00343       0.87406
   324   Si   21  S      Ryd( 5S)     0.00030       1.61387
   325   Si   21  S      Ryd( 6S)     0.00023       9.23891
   326   Si   21  S      Ryd( 7S)     0.00000     136.07157
   327   Si   21  px     Cor( 2p)     1.99991      -3.70493
   328   Si   21  px     Val( 3p)     0.36286       0.20706
   329   Si   21  px     Ryd( 6p)     0.00765       1.13862
   330   Si   21  px     Ryd( 5p)     0.00058       0.89965
   331   Si   21  px     Ryd( 4p)     0.00041       0.64053
   332   Si   21  px     Ryd( 7p)     0.00000      11.54665
   333   Si   21  py     Cor( 2p)     1.99987      -3.70686
   334   Si   21  py     Val( 3p)     0.35139       0.20832
   335   Si   21  py     Ryd( 6p)     0.00789       1.09963
   336   Si   21  py     Ryd( 5p)     0.00067       0.75385
   337   Si   21  py     Ryd( 4p)     0.00054       0.61481
   338   Si   21  py     Ryd( 7p)     0.00000      11.48714
   339   Si   21  pz     Cor( 2p)     1.99991      -3.70880
   340   Si   21  pz     Val( 3p)     0.35684       0.18573
   341   Si   21  pz     Ryd( 6p)     0.00494       1.09244
   342   Si   21  pz     Ryd( 5p)     0.00033       0.76797
   343   Si   21  pz     Ryd( 4p)     0.00050       0.61356
   344   Si   21  pz     Ryd( 7p)     0.00000      11.46800
   345   Si   21  dxy    Ryd( 3d)     0.01144       1.12038
   346   Si   21  dxz    Ryd( 3d)     0.01070       0.96706
   347   Si   21  dyz    Ryd( 3d)     0.00898       0.99741
   348   Si   21  dx2y2  Ryd( 3d)     0.01153       0.98247
   349   Si   21  dz2    Ryd( 3d)     0.01016       1.00092

   350    O   22  S      Cor( 1S)     1.99976     -18.93395
   351    O   22  S      Val( 2S)     1.82931      -1.04427
   352    O   22  S      Ryd( 3S)     0.00134       0.86997
   353    O   22  S      Ryd( 4S)     0.00036       2.04260
   354    O   22  S      Ryd( 5S)     0.00000      49.89274
   355    O   22  px     Val( 2p)     1.83325      -0.38675
   356    O   22  px     Ryd( 3p)     0.00048       0.94462
[...]
   110. LP (   2) O  30                  1.98095    -0.59406  101(r),450(r),587(v),451(r)
                                                    594(v),477(r),465(r),589(v)
                                                    595(v),453(r),478(r),461(r)
                                                    470(r),456(r),460(r),501(r)
                                                    479(r),518(r),474(r),468(r)
                                                    629(r),458(r),504(r),464(r)
                                                    471(r),482(r),521(r),457(r)
                                                    459(r),466(r),517(r),469(r)
   534. RY*(   1) O  30                  0.00096     0.64425   
   535. RY*(   2) O  30                  0.00071     1.01348   
   536. RY*(   3) O  30                  0.00027     1.28194   
   537. RY*(   4) O  30                  0.00020     1.01525   
   538. RY*(   5) O  30                  0.00013     1.33069   
   539. RY*(   6) O  30                  0.00007     0.70503   
   540. RY*(   7) O  30                  0.00006     1.25028   
   541. RY*(   8) O  30                  0.00002     1.20703   
   542. RY*(   9) O  30                  0.00000     5.06221   
   543. RY*(  10) O  30                  0.00000    49.84300   
   544. RY*(  11) O  30                  0.00000     4.95036   
   545. RY*(  12) O  30                  0.00000     5.16569   
   546. RY*(  13) O  30                  0.00001     2.82516   
   547. RY*(  14) O  30                  0.00000     3.10307   
   548. RY*(  15) O  30                  0.00000     3.48492   
   549. RY*(  16) O  30                  0.00000     3.41818   
   550. RY*(  17) O  30                  0.00000     3.13655   
   587. RY*(   1) H  37                  0.00315     1.46527   
   588. RY*(   2) H  37                  0.00133     1.52982   
   589. RY*(   3) H  37                  0.00067     1.64221   
   590. RY*(   4) H  37                  0.00041     1.70948   
   591. RY*(   5) H  37                  0.00017     1.06178   
   592. RY*(   6) H  37                  0.00005     2.28071   
   593. RY*(   1) H  38                  0.00150     1.58076   
   594. RY*(   2) H  38                  0.00090     1.61564   
   595. RY*(   3) H  38                  0.00057     1.53954   
   596. RY*(   4) H  38                  0.00032     1.15856   
   597. RY*(   5) H  38                  0.00006     0.59424   
   598. RY*(   6) H  38                  0.00001     2.69390   
   630. BD*(   1) O  30 - H  37          0.04310     0.51148   
   631. BD*(   1) O  30 - H  38          0.00107     0.55051   
       -------------------------------
              Total Lewis    9.97194  ( 99.4442%)
        Valence non-Lewis    0.04417  (  0.4405%)
        Rydberg non-Lewis    0.01156  (  0.1153%)
       -------------------------------
            Total unit 12   10.02768  (100.0000%)
           Charge unit 12   -0.02768


 NATURAL LOCALIZED MOLECULAR ORBITAL (NLMO) ANALYSIS:

 Highest occupied NBOs are not at the beginning of the NBO list;
 The NLMO program is not currently set up to handle this.
 Sorting of NBOs:                   59   37   28   50   38   60   49   71   47   46
 Sorting of NBOs:                   68   69   34   48   70   57   35   56   36   33
 Sorting of NBOs:                   55   58   44   40   42   64   62   66   29   51
 Sorting of NBOs:                   32   31   30   54   53   52   61   39   45   65
 Sorting of NBOs:                   41   63   43   67    1   15   18   13    4   26
 Sorting of NBOs:                    3   10    8   16   14   21   23   27    2   11
 Sorting of NBOs:                   22    9   24   17   19    5   20    6    7   25
 Sorting of NBOs:                   12   72   87   98  107   91   82   90   79   84
 Sorting of NBOs:                  104   94  110  102   96   77  109  103   85   76
 Sorting of NBOs:                   89  105   83   75  108   88   92   78   97   86
 Sorting of NBOs:                  106   80   95   73  100   74   99   93  202  452
 Sorting of NBOs:                  454  222  453  203  220  479  204  451  201  450
 Sorting of NBOs:                  200  606  621  607  608   81  620  209  101  605
 Sorting of NBOs:                  619  622  627  625  470  630  614  612  617  610
 Sorting of NBOs:                  609  225  624  611  618  126  631  615  613  628
 Sorting of NBOs:                  626  183  623  373  597  323  462  284  184  616
 Sorting of NBOs:                  484  629  214  207  534  416  584  311  167  134
 Sorting of NBOs:                  433  402  500  463  505  372  460  335  455  517
 Sorting of NBOs:                  539  561  334  185  166  149  152  132  383  269
 Sorting of NBOs:                  434  347  251  573  585  250  286  233  465  206
 Sorting of NBOs:                  205  483  114  217  375  364  211  239  399  212
 Sorting of NBOs:                  273  456  365  150  213  370  374  458  518  469
 Sorting of NBOs:                  253  501  418  234  417  290  125  113  115  112
 Sorting of NBOs:                  267  111  400  208  305  485  237  341  169  461
 Sorting of NBOs:                  216  382  361  362  363  236  419  287  535  371
 Sorting of NBOs:                  537  385  268  519  168  210  124  256  285  133
 Sorting of NBOs:                  346  591  560  602  486  489  317  459  504  572
 Sorting of NBOs:                  135  367  487  228  240  288  215  235  310  596
 Sorting of NBOs:                  457  219  506  322  467  289  368  555  541  521
 Sorting of NBOs:                  226  488  468  599  116  260  540  252  254  503
 Sorting of NBOs:                  464  366  482  352  566  554  329  536  369  576
 Sorting of NBOs:                  117  567  538  118  326  401  238  151  523  466
 Sorting of NBOs:                  270  120  350  502  353  403  490  255  224  435
 Sorting of NBOs:                  474  359  316  314  186  587  510  304  139  387
 Sorting of NBOs:                  436  552  440  122  564  407  439  302  588  321
 Sorting of NBOs:                  384  438  344  595  404  358  272  593  307  309
 Sorting of NBOs:                  578  571  420  319  356  557  569  579  339  558
 Sorting of NBOs:                  594  343  291  308  589  570  320  188  338  522
 Sorting of NBOs:                  351  187  437  333  331  271  577  524  559  603
 Sorting of NBOs:                  520  590  581  357  327  583  303  170  172  389
 Sorting of NBOs:                  315  601  274  330  123  580  153  340  155  600
 Sorting of NBOs:                  360  345  189  471  582  337  565  138  553  137
 Sorting of NBOs:                  376  121  388  422  386  405  332  563  568  301
 Sorting of NBOs:                  313  556  328  551  154  355  342  136  325  318
 Sorting of NBOs:                  575  157  306  171  421  349  190  173  354  592
 Sorting of NBOs:                  423  127  574  348  562  180  312  604  586  324
 Sorting of NBOs:                  193  336  598  156  174  530  496  425  529  279
 Sorting of NBOs:                  533  161  546  428  159  140  442  266  495  263
 Sorting of NBOs:                  410  119  245  280  146  515  283  446  516  390
 Sorting of NBOs:                  532  406  497  158  513  300  431  299  441  141
 Sorting of NBOs:                  192  447  147  547  392  281  424  426  265  409
 Sorting of NBOs:                  393  550  512  197  248  297  408  246  412  499
 Sorting of NBOs:                  179  175  247  296  264  394  249  282  514  196
 Sorting of NBOs:                  531  391  262  176  191  298  549  548  145  498
 Sorting of NBOs:                  443  162  199  194  396  427  481  476  195  445
 Sorting of NBOs:                  411  182  398  429  277  544  178  160  414  397
 Sorting of NBOs:                  432  527  528  494  177  241  261  142  164  542
 Sorting of NBOs:                  292  278  511  259  294  509  444  242  448  508
 Sorting of NBOs:                  144  492  163  143  545  258  413  295  525  221
 Sorting of NBOs:                  275  491  244  480  229  218  377  130  129  380
 Sorting of NBOs:                  379  131  381  477  223  165  449  198  181  415
 Sorting of NBOs:                  148  507  526  395  293  257  276  543  430  493
 Sorting of NBOs:                  243  473  475  472  227  231  232  128  378  478
 Sorting of NBOs:                  230
 Reordering of NBOs for storage:    59   37   28   50   38   60   49   71   47   46
 Reordering of NBOs for storage:    68   69   34   48   70   57   35   56   36   33
 Reordering of NBOs for storage:    55   58   44   40   42   64   62   66   29   51
 Reordering of NBOs for storage:    32   31   30   54   53   52   61   39   45   65
 Reordering of NBOs for storage:    41   63   43   67    1   15   18   13    4   26
 Reordering of NBOs for storage:     3   10    8   16   14   21   23   27    2   11
 Reordering of NBOs for storage:    22    9   24   17   19    5   20    6    7   25
 Reordering of NBOs for storage:    12   72   87   98  107   91   82   90   79   84
 Reordering of NBOs for storage:   104   94  110  102   96   77  109  103   85   76
 Reordering of NBOs for storage:    89  105   83   75  108   88   92   78   97   86
 Reordering of NBOs for storage:   106   80   95   73  100   74   99   93  606  621
 Reordering of NBOs for storage:   607  608   81  620  101  605  619  622  627  625
 Reordering of NBOs for storage:   630  614  612  617  610  609  624  611  618  631
 Reordering of NBOs for storage:   615  613  628  626  623  616  629  202  452  454
 Reordering of NBOs for storage:   222  453  203  220  479  204  451  201  450  200
 Reordering of NBOs for storage:   209  470  225  126  183  373  597  323  462  284
 Reordering of NBOs for storage:   184  484  214  207  534  416  584  311  167  134
 Reordering of NBOs for storage:   433  402  500  463  505  372  460  335  455  517
 Reordering of NBOs for storage:   539  561  334  185  166  149  152  132  383  269
 Reordering of NBOs for storage:   434  347  251  573  585  250  286  233  465  206
 Reordering of NBOs for storage:   205  483  114  217  375  364  211  239  399  212
 Reordering of NBOs for storage:   273  456  365  150  213  370  374  458  518  469
 Reordering of NBOs for storage:   253  501  418  234  417  290  125  113  115  112
 Reordering of NBOs for storage:   267  111  400  208  305  485  237  341  169  461
 Reordering of NBOs for storage:   216  382  361  362  363  236  419  287  535  371
 Reordering of NBOs for storage:   537  385  268  519  168  210  124  256  285  133
 Reordering of NBOs for storage:   346  591  560  602  486  489  317  459  504  572
 Reordering of NBOs for storage:   135  367  487  228  240  288  215  235  310  596
 Reordering of NBOs for storage:   457  219  506  322  467  289  368  555  541  521
 Reordering of NBOs for storage:   226  488  468  599  116  260  540  252  254  503
 Reordering of NBOs for storage:   464  366  482  352  566  554  329  536  369  576
 Reordering of NBOs for storage:   117  567  538  118  326  401  238  151  523  466
 Reordering of NBOs for storage:   270  120  350  502  353  403  490  255  224  435
 Reordering of NBOs for storage:   474  359  316  314  186  587  510  304  139  387
 Reordering of NBOs for storage:   436  552  440  122  564  407  439  302  588  321
 Reordering of NBOs for storage:   384  438  344  595  404  358  272  593  307  309
 Reordering of NBOs for storage:   578  571  420  319  356  557  569  579  339  558
 Reordering of NBOs for storage:   594  343  291  308  589  570  320  188  338  522
 Reordering of NBOs for storage:   351  187  437  333  331  271  577  524  559  603
 Reordering of NBOs for storage:   520  590  581  357  327  583  303  170  172  389
 Reordering of NBOs for storage:   315  601  274  330  123  580  153  340  155  600
 Reordering of NBOs for storage:   360  345  189  471  582  337  565  138  553  137
 Reordering of NBOs for storage:   376  121  388  422  386  405  332  563  568  301
 Reordering of NBOs for storage:   313  556  328  551  154  355  342  136  325  318
 Reordering of NBOs for storage:   575  157  306  171  421  349  190  173  354  592
 Reordering of NBOs for storage:   423  127  574  348  562  180  312  604  586  324
 Reordering of NBOs for storage:   193  336  598  156  174  530  496  425  529  279
 Reordering of NBOs for storage:   533  161  546  428  159  140  442  266  495  263
 Reordering of NBOs for storage:   410  119  245  280  146  515  283  446  516  390
 Reordering of NBOs for storage:   532  406  497  158  513  300  431  299  441  141
 Reordering of NBOs for storage:   192  447  147  547  392  281  424  426  265  409
 Reordering of NBOs for storage:   393  550  512  197  248  297  408  246  412  499
 Reordering of NBOs for storage:   179  175  247  296  264  394  249  282  514  196
 Reordering of NBOs for storage:   531  391  262  176  191  298  549  548  145  498
 Reordering of NBOs for storage:   443  162  199  194  396  427  481  476  195  445
 Reordering of NBOs for storage:   411  182  398  429  277  544  178  160  414  397
 Reordering of NBOs for storage:   432  527  528  494  177  241  261  142  164  542
 Reordering of NBOs for storage:   292  278  511  259  294  509  444  242  448  508
 Reordering of NBOs for storage:   144  492  163  143  545  258  413  295  525  221
 Reordering of NBOs for storage:   275  491  244  480  229  218  377  130  129  380
 Reordering of NBOs for storage:   379  131  381  477  223  165  449  198  181  415
 Reordering of NBOs for storage:   148  507  526  395  293  257  276  543  430  493
 Reordering of NBOs for storage:   243  473  475  472  227  231  232  128  378  478
 Reordering of NBOs for storage:   230
 Labels of output orbitals:  CR  CR  CR  CR  CR  CR  CR  CR  CR  CR  CR  CR  CR  CR  CR  CR  CR  CR  CR  CR  
 Labels of output orbitals:  CR  CR  CR  CR  CR  CR  CR  CR  CR  CR  CR  CR  CR  CR  CR  CR  CR  CR  CR  CR  
 Labels of output orbitals:  CR  CR  CR  CR  BD  BD  BD  BD  BD  BD  BD  BD  BD  BD  BD  BD  BD  BD  BD  BD  
 Labels of output orbitals:  BD  BD  BD  BD  BD  BD  BD  BD  BD  BD  BD  LP  LP  LP  LP  LP  LP  LP  LP  LP  
 Labels of output orbitals:  LP  LP  LP  LP  LP  LP  LP  LP  LP  LP  LP  LP  LP  LP  LP  LP  LP  LP  LP  LP  
 Labels of output orbitals:  LP  LP  LP  LP  LP  LP  LP  LP  BD* BD* BD* BD* LP* BD* LP* BD* BD* BD* BD* BD* 
 Labels of output orbitals:  BD* BD* BD* BD* BD* BD* BD* BD* BD* BD* BD* BD* BD* BD* BD* BD* BD* RY* RY* RY* 
 Labels of output orbitals:  RY* RY* RY* RY* RY* RY* RY* RY* RY* RY* RY* RY* RY* RY* RY* RY* RY* RY* RY* RY* 
 Labels of output orbitals:  RY* RY* RY* RY* RY* RY* RY* RY* RY* RY* RY* RY* RY* RY* RY* RY* RY* RY* RY* RY* 
 Labels of output orbitals:  RY* RY* RY* RY* RY* RY* RY* RY* RY* RY* RY* RY* RY* RY* RY* RY* RY* RY* RY* RY* 
 Labels of output orbitals:  RY* RY* RY* RY* RY* RY* RY* RY* RY* RY* RY* RY* RY* RY* RY* RY* RY* RY* RY* RY* 
 Labels of output orbitals:  RY* RY* RY* RY* RY* RY* RY* RY* RY* RY* RY* RY* RY* RY* RY* RY* RY* RY* RY* RY* 
 Labels of output orbitals:  RY* RY* RY* RY* RY* RY* RY* RY* RY* RY* RY* RY* RY* RY* RY* RY* RY* RY* RY* RY* 
 Labels of output orbitals:  RY* RY* RY* RY* RY* RY* RY* RY* RY* RY* RY* RY* RY* RY* RY* RY* RY* RY* RY* RY* 
 Labels of output orbitals:  RY* RY* RY* RY* RY* RY* RY* RY* RY* RY* RY* RY* RY* RY* RY* RY* RY* RY* RY* RY* 
 Labels of output orbitals:  RY* RY* RY* RY* RY* RY* RY* RY* RY* RY* RY* RY* RY* RY* RY* RY* RY* RY* RY* RY* 
 Labels of output orbitals:  RY* RY* RY* RY* RY* RY* RY* RY* RY* RY* RY* RY* RY* RY* RY* RY* RY* RY* RY* RY* 
 Labels of output orbitals:  RY* RY* RY* RY* RY* RY* RY* RY* RY* RY* RY* RY* RY* RY* RY* RY* RY* RY* RY* RY* 
 Labels of output orbitals:  RY* RY* RY* RY* RY* RY* RY* RY* RY* RY* RY* RY* RY* RY* RY* RY* RY* RY* RY* RY* 
 Labels of output orbitals:  RY* RY* RY* RY* RY* RY* RY* RY* RY* RY* RY* RY* RY* RY* RY* RY* RY* RY* RY* RY* 
 Labels of output orbitals:  RY* RY* RY* RY* RY* RY* RY* RY* RY* RY* RY* RY* RY* RY* RY* RY* RY* RY* RY* RY* 
 Labels of output orbitals:  RY* RY* RY* RY* RY* RY* RY* RY* RY* RY* RY* RY* RY* RY* RY* RY* RY* RY* RY* RY* 
 Labels of output orbitals:  RY* RY* RY* RY* RY* RY* RY* RY* RY* RY* RY* RY* RY* RY* RY* RY* RY* RY* RY* RY* 
 Labels of output orbitals:  RY* RY* RY* RY* RY* RY* RY* RY* RY* RY* RY* RY* RY* RY* RY* RY* RY* RY* RY* RY* 
 Labels of output orbitals:  RY* RY* RY* RY* RY* RY* RY* RY* RY* RY* RY* RY* RY* RY* RY* RY* RY* RY* RY* RY* 
 Labels of output orbitals:  RY* RY* RY* RY* RY* RY* RY* RY* RY* RY* RY* RY* RY* RY* RY* RY* RY* RY* RY* RY* 
 Labels of output orbitals:  RY* RY* RY* RY* RY* RY* RY* RY* RY* RY* RY* RY* RY* RY* RY* RY* RY* RY* RY* RY* 
 Labels of output orbitals:  RY* RY* RY* RY* RY* RY* RY* RY* RY* RY* RY* RY* RY* RY* RY* RY* RY* RY* RY* RY* 
 Labels of output orbitals:  RY* RY* RY* RY* RY* RY* RY* RY* RY* RY* RY* RY* RY* RY* RY* RY* RY* RY* RY* RY* 
 Labels of output orbitals:  RY* RY* RY* RY* RY* RY* RY* RY* RY* RY* RY* RY* RY* RY* RY* RY* RY* RY* RY* RY* 
 Labels of output orbitals:  RY* RY* RY* RY* RY* RY* RY* RY* RY* RY* RY* RY* RY* RY* RY* RY* RY* RY* RY* RY* 
 Labels of output orbitals:  RY* RY* RY* RY* RY* RY* RY* RY* RY* RY* RY* 
 GSVD:  LWork=      -12528 too small for GESVD, short by       59940 words or       59940 for optimal perf.
 GSVD:  LWork=     -277713 too small for GESVD, short by     1375490 words or     1375490 for optimal perf.
 1\1\GINC-CN025\SP\RwB97XD\6-311++G(d,p)\Ca2H19O16Si2(1-)\18CE90J01\07-
 May-2022\0\\# wb97xd/6-311++g(d,p) scrf=(cpcm,solvent=water) nosymm po
 p=(savenbos,nboread) scf=xqc\\c2sdimerts1nbo\\-1,1\Si,0,0.28064993,-0.
 59822747,0.\O,0,-1.31774707,-0.58207147,0.083862\O,0,0.72916193,-0.972
 27747,-1.57774\O,0,0.90724593,0.89874353,0.380878\O,0,1.05821193,-1.70
 215347,0.959773\Ca,0,-2.52167607,1.12229953,-1.152239\O,0,-3.42615507,
 -1.26880447,-1.257026\O,0,-3.15771807,0.79140353,1.267443\O,0,-0.88981
 107,2.52400953,-0.574351\O,0,-1.22320207,0.15907053,-2.996685\H,0,-2.3
 7891607,0.18975553,1.192913\H,0,-2.93340007,1.45959753,1.917423\H,0,-2
 .58829707,-1.38859847,-0.750272\H,0,-3.29678207,-1.71168447,-2.098055\
 H,0,0.30469393,1.62928953,0.036855\H,0,-0.63356107,3.38532953,-0.90039
 8\H,0,-0.41870207,-0.29026947,-2.647782\H,0,-0.94112007,0.68317453,-3.
 748436\H,0,1.93539393,-1.85932747,0.526404\H,0,1.68499193,-1.25373647,
 -1.545764\Si,0,4.26000993,-0.55257247,-0.642757\O,0,5.67180493,-1.0055
 5747,0.029194\O,0,3.71149493,0.80744353,0.180451\O,0,4.65810093,0.0756
 9653,-2.179837\O,0,3.11972293,-1.67538547,-0.755345\Ca,0,7.71930993,-0
 .95083047,-1.212356\O,0,7.74900293,-0.04344747,1.164493\O,0,7.11955993
 ,-3.10974847,-0.025482\O,0,6.64585593,-1.42572947,-3.091355\O,0,6.9851
 4993,1.35377253,-1.757293\H,0,6.32353393,-2.52833347,0.117387\H,0,6.82
 536493,-3.87164247,-0.527365\H,0,6.78754793,-0.24128447,1.006599\H,0,7
 .81648293,0.87712653,1.421447\H,0,5.24593993,-0.55383047,-2.675697\H,0
 ,6.60107693,-2.11331447,-3.752312\H,0,6.04286593,1.12283553,-1.936948\
 H,0,6.97302493,2.06260753,-1.111708\H,0,2.74421693,0.90081053,0.232331
 \\Version=EM64L-G16RevB.01\HF=-3150.3369428\RMSD=2.955e-09\Dipole=-0.5
 008086,3.3578865,-3.3616717\Quadrupole=25.7435339,-11.5746636,-14.1688
 702,-2.7438682,14.1041633,1.6302629\PG=C01 [X(Ca2H19O16Si2)]\\@


 O WAD SOME POWER THE GIFTIE GIE US       
 TO SEE OURSELS AS OTHERS SEE US.....     
 IT WOULD FRAE MONIE A BLUNDER FREE US,   
                     AND FOOLISH NOTION...
 WHAT AIRS IN DRESS AND GAIT WAD LEA'E US,
                     AND EV'N DEVOTION....
                                          
              (ROBERT BURNS 'TO A LOUSE') 
 Job cpu time:       0 days  1 hours 11 minutes 54.0 seconds.
 Elapsed time:       0 days  0 hours  4 minutes 35.6 seconds.
 File lengths (MBytes):  RWF=    306 Int=      0 D2E=      0 Chk=     25 Scr=      1
 Normal termination of Gaussian 16 at Sat May  7 11:01:17 2022.
