     320
 i =        1, E =     -3367.2467396285
 Al         2.0847892454        6.2934613771        1.0141530020
 Al         4.7804247489        2.0978204210        4.0090167205
 Al         4.8490326449        6.2934613392        1.0065878211
 Al         3.3548817685        6.2934616783        5.9950933873
 Al         1.9879972755        0.6304354200        4.9265837632
 Al         0.5745983308        4.8581796401        6.9363426426
  O         4.8238898570        6.2934613646        7.0342724644
  O         3.3566010798        2.0978206091        5.1504654735
  O         1.9463510269        6.2934613671        7.1555558000
  O         0.6835392581        2.0978206912        5.0448908716
  O         4.8641454372        3.4051355164        7.2341860412
  O         3.3103199963        7.6973798023        4.9388234646
  O         1.9125869385        3.4059804058        6.8630172288
  O         0.7134447756        7.6884625004        5.1255476818
 Al         3.3877371157        2.0978204886        7.0319508452
 Al         0.6921029071        6.2934616842        4.0370872338
 Al         0.6234957798        2.0978204975        7.0395237308
 Al         2.1176452140        2.0978204375        2.0510101844
 Al         3.4845374683        4.8260682198        3.1195196728
 Al         3.4845373216        7.7608546882        3.1195200272
 Al         1.9879972191        3.5652139073        4.9265838470
 Al         4.8979292089        0.6625384076        1.1097600098
 Al         4.8979291876        3.5331025002        1.1097600065
 Al         0.5745983794        7.7287433146        6.9363423286
  O         0.6486446858        2.0978204858        1.0118301672
  O         2.1159265648        6.2934613281        2.8956452443
  O         3.5261765859        2.0978204842        0.8905472002
  O         4.7889876339        6.2934613326        3.0012120891
  O         0.6083893560        7.6007764496        0.8119175726
  O         0.6083893519        4.9861463008        0.8119175681
  O         4.8641454452        0.7905055578        7.2341860868
  O         2.1622077658        3.5017385082        3.1072795125
  O         2.1622077647        0.6939026633        3.1072793732
  O         3.3103202056        4.8895432381        4.9388234827
  O         3.5599404508        7.6016214891        1.1830860507
  O         3.5599404824        4.9853012673        1.1830860544
  O         1.9125869732        0.7896608442        6.8630173093
  O         4.7590911248        3.4928213846        2.9205553229
  O         4.7590911457        0.7028196189        2.9205552628
  O         0.7134445356        4.8984606106        5.1255476879
 Al         7.6388849846        6.2934613740        1.0141529979
 Al        10.3345204972        2.0978204204        4.0090167097
 Al        10.4031283994        6.2934613345        1.0065878221
 Al         8.9089775170        6.2934616790        5.9950933906
 Al         7.5420930169        0.6304354159        4.9265837548
 Al         6.1286940780        4.8581796397        6.9363426433
  O        10.3779856122        6.2934613604        7.0342724656
  O         8.9106968359        2.0978206105        5.1504654737
  O         7.5004467802        6.2934613679        7.1555557989
  O         6.2376350075        2.0978206934        5.0448908664
  O        10.4182411928        3.4051355197        7.2341860431
  O         8.8644157502        7.6973798021        4.9388234674
  O         7.4666826950        3.4059804063        6.8630172275
  O         6.2675405301        7.6884625014        5.1255476800
 Al         8.9418328469        2.0978204870        7.0319508426
 Al         6.2461986518        6.2934616828        4.0370872273
 Al         6.1775915188        2.0978204991        7.0395237295
 Al         7.6717409539        2.0978204327        2.0510101808
 Al         9.0386332182        4.8260682208        3.1195196692
 Al         9.0386330730        7.7608546945        3.1195200217
 Al         7.5420929650        3.5652139037        4.9265838430
 Al        10.4520249718        0.6625384046        1.1097600064
 Al        10.4520249514        3.5331025000        1.1097600031
 Al         6.1286941261        7.7287433012        6.9363423300
  O         6.2027404452        2.0978204878        1.0118301682
  O         7.6700223180        6.2934613284        2.8956452456
  O         9.0802723378        2.0978204868        0.8905472009
  O        10.3430833824        6.2934613327        3.0012120824
  O         6.1624851086        7.6007764431        0.8119175735
  O         6.1624851103        4.9861462992        0.8119175714
  O        10.4182412000        0.7905055546        7.2341860884
  O         7.7163035166        3.5017385076        3.1072795083
  O         7.7163035187        0.6939026627        3.1072793743
  O         8.8644159606        4.8895432391        4.9388234824
  O         9.1140362034        7.6016214910        1.1830860512
  O         9.1140362341        4.9853012661        1.1830860558
  O         7.4666827293        0.7896608448        6.8630173081
  O        10.3131868758        3.4928213857        2.9205553223
  O        10.3131869031        0.7028196174        2.9205552621
  O         6.2675402916        4.8984606129        5.1255476841
 Al         2.0847892030       14.6847432288        1.0141530015
 Al         4.7804247169       10.4891022786        4.0090167301
 Al         4.8490326053       14.6847432202        1.0065878231
 Al         3.3548817149       14.6847435296        5.9950933850
 Al         1.9879972312        9.0217171943        4.9265837697
 Al         0.5745982826       13.2494614924        6.9363426425
  O         4.8238898095       14.6847431964        7.0342724609
  O         3.3566010357       10.4891024453        5.1504654756
  O         1.9463509809       14.6847432035        7.1555557967
  O         0.6835392148       10.4891025255        5.0448908727
  O         4.8641453921       11.7964173514        7.2341860401
  O         3.3103199445       16.0886616132        4.9388234643
  O         1.9125868933       11.7972622400        6.8630172288
  O         0.7134447427       16.0797443119        5.1255476848
 Al         3.3877370674       10.4891023277        7.0319508565
 Al         0.6921028724       14.6847435380        4.0370872327
 Al         0.6234957346       10.4891023701        7.0395237402
 Al         2.1176451594       10.4891022973        2.0510101899
 Al         3.4845374250       13.2173500843        3.1195196729
 Al         3.4845372782       16.1521364702        3.1195200175
 Al         1.9879971731       11.9564957702        4.9265838505
 Al         4.8979291779        9.0538202243        1.1097600089
 Al         4.8979291484       11.9243843660        1.1097600042
 Al         0.5745983478       16.1200251143        6.9363423312
  O         0.6486446410       10.4891023214        1.0118301667
  O         2.1159265195       14.6847431669        2.8956452469
  O         3.5261765394       10.4891023209        0.8905472028
  O         4.7889875872       14.6847431680        3.0012120902
  O         0.6083892979       15.9920582665        0.8119175665
  O         0.6083893076       13.3774281344        0.8119175703
  O         4.8641453919        9.1817873766        7.2341860881
  O         2.1622077210       11.8930203446        3.1072795119
  O         2.1622077095        9.0851844728        3.1072793742
  O         3.3103201615       13.2808250740        4.9388234812
  O         3.5599404135       15.9929033083        1.1830860517
  O         3.5599404349       13.3765831025        1.1830860528
  O         1.9125869351        9.1809426587        6.8630173106
  O         4.7590910790       11.8841032209        2.9205553212
  O         4.7590911140        9.0941014312        2.9205552652
  O         0.7134444916       13.2897424481        5.1255476857
 Al         7.6388849439       14.6847432276        1.0141530014
 Al        10.3345204592       10.4891022772        4.0090167201
 Al        10.4031283555       14.6847432197        1.0065878185
 Al         8.9089774593       14.6847435289        5.9950933817
 Al         7.5420929799        9.0217171993        4.9265837613
 Al         6.1286940356       13.2494614941        6.9363426421
  O        10.3779855695       14.6847431967        7.0342724659
  O         8.9106967893       10.4891024426        5.1504654746
  O         7.5004467363       14.6847432015        7.1555557959
  O         6.2376349634       10.4891025259        5.0448908667
  O        10.4182411505       11.7964173519        7.2341860428
  O         8.8644156979       16.0886616140        4.9388234641
  O         7.4666826463       11.7972622391        6.8630172282
  O         6.2675404981       16.0797443139        5.1255476825
 Al         8.9418328043       10.4891023287        7.0319508543
 Al         6.2461986227       14.6847435388        4.0370872265
 Al         6.1775914757       10.4891023724        7.0395237393
 Al         7.6717408985       10.4891022933        2.0510101865
 Al         9.0386331680       13.2173500856        3.1195196745
 Al         9.0386330197       16.1521364782        3.1195200175
 Al         7.5420929212       11.9564957677        4.9265838470
 Al        10.4520249296        9.0538202132        1.1097600105
 Al        10.4520249033       11.9243843657        1.1097600008
 Al         6.1286940996       16.1200251130        6.9363423285
  O         6.2027403994       10.4891023219        1.0118301693
  O         7.6700222705       14.6847431646        2.8956452454
  O         9.0802722942       10.4891023224        0.8905472009
  O        10.3430833406       14.6847431676        3.0012120814
  O         6.1624850547       15.9920582644        0.8119175681
  O         6.1624850623       13.3774281360        0.8119175717
  O        10.4182411442        9.1817873725        7.2341860887
  O         7.7163034711       11.8930203456        3.1072795093
  O         7.7163034629        9.0851844738        3.1072793727
  O         8.8644159164       13.2808250748        4.9388234804
  O         9.1140361673       15.9929033079        1.1830860525
  O         9.1140361895       13.3765831014        1.1830860535
  O         7.4666826910        9.1809426578        6.8630173115
  O        10.3131868317       11.8841032212        2.9205553214
  O        10.3131868686        9.0941014316        2.9205552654
  O         6.2675402450       13.2897424479        5.1255476847
 Al         2.0032201926        6.2934614512        9.0602560412
 Al         4.6988556788        2.0978204831       12.0551197892
 Al         4.7674635627        6.2934614211        9.0526908559
 Al         3.2733126943        6.2934617402       14.0411964334
 Al         1.9064282025        0.6304354810       12.9726868258
 Al         0.4930292396        4.8581796862       14.9824456888
  O         4.7423207829        6.2934614285       15.0803754951
  O         3.2750320081        2.0978206790       13.1965685068
  O         1.8647819554        6.2934614325       15.2016588332
  O         0.6019701854        2.0978207602       13.0909939047
  O         4.7825763605        3.4051355853       15.2802890829
  O         3.2287509231        7.6973798669       12.9849264942
  O         1.8310178654        3.4059804680       14.9091202513
  O         0.6318757037        7.6884625668       13.1716507106
 Al         3.3061680588        2.0978205512       15.0780538930
 Al         0.6105338319        6.2934617508       12.0831902887
 Al         0.5419266786        2.0978205549       15.0856267771
 Al         2.0360761406        2.0978205087       10.0971132375
 Al         3.4029684008        4.8260682949       11.1656227247
 Al         3.4029682492        7.7608547591       11.1656230773
 Al         1.9064281474        3.5652139740       12.9726869075
 Al         4.8163601292        0.6625384779        9.1558630592
 Al         4.8163601156        3.5331025665        9.1558630405
 Al         0.4930293022        7.7287433778       14.9824453607
  O         0.5670756132        2.0978205547        9.0579332051
  O         2.0343574912        6.2934613970       10.9417482733
  O         3.4446075130        2.0978205529        8.9366502412
  O         4.7074185610        6.2934613960       11.0473151216
  O         0.5268202806        7.6007765125        8.8580206144
  O         0.5268202801        4.9861463685        8.8580206132
  O         4.7825763704        0.7905056237       15.2802891340
  O         2.0806386918        3.5017385756       11.1533825440
  O         2.0806386940        0.6939027276       11.1533824036
  O         3.2287511353        4.8895433054       12.9849265124
  O         3.4783713752        7.6016215564        9.2291890750
  O         3.4783714071        4.9853013308        9.2291890787
  O         1.8310179024        0.7896609120       14.9091203337
  O         4.6775220511        3.4928214532       10.9666583535
  O         4.6775220726        0.7028196862       10.9666582934
  O         0.6318754608        4.8984606781       13.1716507150
 Al         7.5573159338        6.2934614507        9.0602560399
 Al        10.2529514246        2.0978204840       12.0551197809
 Al        10.3215593037        6.2934614211        9.0526908488
 Al         8.8274084415        6.2934617398       14.0411964375
 Al         7.4605239504        0.6304354843       12.9726868228
 Al         6.0471250076        4.8581796934       14.9824456926
  O        10.2964165389        6.2934614304       15.0803754999
  O         8.8291277623        2.0978206778       13.1965685036
  O         7.4188777094        6.2934614336       15.2016588332
  O         6.1560659349        2.0978207596       13.0909938973
  O        10.3366721193        3.4051355879       15.2802890826
  O         8.7828466778        7.6973798687       12.9849264924
  O         7.3851136192        3.4059804700       14.9091202509
  O         6.1859714574        7.6884625654       13.1716507095
 Al         8.8602637940        2.0978205509       15.0780538965
 Al         6.1646295785        6.2934617507       12.0831902816
 Al         6.0960224389        2.0978205558       15.0856267807
 Al         7.5901718803        2.0978205089       10.0971132347
 Al         8.9570641461        4.8260682925       11.1656227235
 Al         8.9570639964        7.7608547629       11.1656230754
 Al         7.4605238928        3.5652139699       12.9726869043
 Al        10.3704558829        0.6625384763        9.1558630566
 Al        10.3704558668        3.5331025664        9.1558630348
 Al         6.0471250632        7.7287433667       14.9824453640
  O         6.1211713708        2.0978205548        9.0579332077
  O         7.5884532458        6.2934613955       10.9417482742
  O         8.9987032673        2.0978205537        8.9366502405
  O        10.2615143123        6.2934613978       11.0473151138
  O         6.0809160376        7.6007765084        8.8580206136
  O         6.0809160347        4.9861463703        8.8580206157
  O        10.3366721287        0.7905056223       15.2802891374
  O         7.6347344449        3.5017385759       11.1533825419
  O         7.6347344449        0.6939027293       11.1533824046
  O         8.7828468880        4.8895433045       12.9849265114
  O         9.0324671303        7.6016215548        9.2291890755
  O         9.0324671621        4.9853013310        9.2291890785
  O         7.3851136562        0.7896609137       14.9091203340
  O        10.2316178029        3.4928214531       10.9666583526
  O        10.2316178283        0.7028196856       10.9666582923
  O         6.1859712152        4.8984606788       13.1716507150
 Al         2.0032201493       14.6847432832        9.0602560491
 Al         4.6988556452       10.4891023437       12.0551197848
 Al         4.7674635205       14.6847432861        9.0526908612
 Al         3.2733126399       14.6847435980       14.0411964323
 Al         1.9064281619        9.0217172643       12.9726868117
 Al         0.4930291903       13.2494615576       14.9824456858
  O         4.7423207364       14.6847432656       15.0803754964
  O         3.2750319626       10.4891025146       13.1965685054
  O         1.8647819109       14.6847432685       15.2016588313
  O         0.6019701399       10.4891025927       13.0909939027
  O         4.7825763173       11.7964174197       15.2802890828
  O         3.2287508716       16.0886616800       12.9849264959
  O         1.8310178223       11.7972623060       14.9091202538
  O         0.6318756713       16.0797443796       13.1716507159
 Al         3.3061680172       10.4891024009       15.0780538876
 Al         0.6105337980       14.6847436071       12.0831902923
 Al         0.5419266326       10.4891024384       15.0856267725
 Al         2.0360760869       10.4891023614       10.0971132347
 Al         3.4029683543       13.2173501477       11.1656227239
 Al         3.4029682021       16.1521365340       11.1656230859
 Al         1.9064281007       11.9564958390       12.9726869027
 Al         4.8163601033        9.0538202940        9.1558630576
 Al         4.8163600695       11.9243844216        9.1558630399
 Al         0.4930292566       16.1200251908       14.9824453676
  O         0.5670755705       10.4891023869        9.0579332058
  O         2.0343574446       14.6847432304       10.9417482773
  O         3.4446074673       10.4891023874        8.9366502405
  O         4.7074185173       14.6847432320       11.0473151229
  O         0.5268202251       15.9920583319        8.8580206093
  O         0.5268202310       13.3774282045        8.8580206144
  O         4.7825763171        9.1817874478       15.2802891348
  O         2.0806386497       11.8930204095       11.1533825434
  O         2.0806386369        9.0851845389       11.1533824041
  O         3.2287510891       13.2808251406       12.9849265126
  O         3.4783713388       15.9929033735        9.2291890776
  O         3.4783713638       13.3765831662        9.2291890806
  O         1.8310178633        9.1809427289       14.9091203367
  O         4.6775220046       11.8841032876       10.9666583527
  O         4.6775220427        9.0941014980       10.9666582951
  O         0.6318754175       13.2897425149       13.1716507150
 Al         7.5573158938       14.6847432835        9.0602560514
 Al        10.2529513837       10.4891023448       12.0551197771
 Al        10.3215592597       14.6847432826        9.0526908583
 Al         8.8274083878       14.6847436022       14.0411964365
 Al         7.4605239116        9.0217172703       12.9726868102
 Al         6.0471249628       13.2494615583       14.9824456882
  O        10.2964164942       14.6847432625       15.0803754999
  O         8.8291277192       10.4891025108       13.1965685054
  O         7.4188776641       14.6847432676       15.2016588326
  O         6.1560658897       10.4891025946       13.0909938968
  O        10.3366720739       11.7964174210       15.2802890842
  O         8.7828466235       16.0886616800       12.9849264954
  O         7.3851135761       11.7972623051       14.9091202536
  O         6.1859714240       16.0797443791       13.1716507133
 Al         8.8602637491       10.4891023991       15.0780538862
 Al         6.1646295494       14.6847436021       12.0831902861
 Al         6.0960223892       10.4891024383       15.0856267787
 Al         7.5901718274       10.4891023630       10.0971132332
 Al         8.9570641021       13.2173501473       11.1656227216
 Al         8.9570639502       16.1521365310       11.1656230831
 Al         7.4605238493       11.9564958356       12.9726868995
 Al        10.3704558514        9.0538202839        9.1558630540
 Al        10.3704558163       11.9243844221        9.1558630356
 Al         6.0471250281       16.1200251865       14.9824453731
  O         6.1211713279       10.4891023859        9.0579332073
  O         7.5884531978       14.6847432325       10.9417482760
  O         8.9987032210       10.4891023863        8.9366502389
  O        10.2615142686       14.6847432330       11.0473151138
  O         6.0809159833       15.9920583301        8.8580206128
  O         6.0809159894       13.3774282035        8.8580206172
  O        10.3366720719        9.1817874422       15.2802891351
  O         7.6347343983       11.8930204102       11.1533825424
  O         7.6347343920        9.0851845386       11.1533824033
  O         8.7828468432       13.2808251405       12.9849265134
  O         9.0324670916       15.9929033751        9.2291890773
  O         9.0324671187       13.3765831653        9.2291890788
  O         7.3851136185        9.1809427289       14.9091203365
  O        10.2316177590       11.8841032871       10.9666583523
  O        10.2316177963        9.0941014974       10.9666582945
  O         6.1859711702       13.2897425157       13.1716507154
     320
 i =        2, E =     -3367.2549848781
 Al         2.0796716730        6.2761460567        1.0124262706
 Al         4.7654048512        2.0920486428        4.0025639612
 Al         4.8336839412        6.2761459722        1.0054362686
 Al         3.3447276431        6.2761466616        5.9824668348
 Al         1.9819612526        0.6308420854        4.9192884270
 Al         0.5745314342        4.8441672363        6.9226642164
  O         4.8117084096        6.2761460442        7.0225820602
  O         3.3443118112        2.0920490234        5.1409640169
  O         1.9374596226        6.2761460448        7.1436818219
  O         0.6845382250        2.0920492165        5.0345663667
  O         4.8480782752        3.3941224519        7.2188889905
  O         3.3020457053        7.6796419707        4.9270285549
  O         1.9078474406        3.3961868162        6.8490350493
  O         0.7086153282        7.6702311650        5.1144866127
 Al         3.3764550997        2.0920487717        7.0164824251
 Al         0.6907242509        6.2761466896        4.0263444783
 Al         0.6224466246        2.0920488139        7.0234770097
 Al         2.1114002569        2.0920487161        2.0464409431
 Al         3.4741713561        4.8149339252        3.1096190604
 Al         3.4741710339        7.7373585304        3.1096197348
 Al         1.9819611195        3.5532613083        4.9192886209
 Al         4.8815974506        0.6600692097        1.1062419097
 Al         4.8815974116        3.5240281187        1.1062419025
 Al         0.5745315329        7.7081252903        6.9226635939
  O         0.6444237661        2.0920487398        1.0063238240
  O         2.1118173760        6.2761459649        2.8879474133
  O         3.5186693943        2.0920487378        0.8852250172
  O         4.7715896988        6.2761459759        2.9943405857
  O         0.6080543161        7.5782197705        0.8100189761
  O         0.6080543098        4.9740723159        0.8100189947
  O         4.8480782927        0.7899752335        7.2188890713
  O         2.1540838413        3.4955437642        3.1018783698
  O         2.1540838405        0.6885541063        3.1018781185
  O         3.3020462037        4.8726509067        4.9270285807
  O         3.5482813007        7.5802844529        1.1798723163
  O         3.5482813727        4.9720076531        1.1798723040
  O         1.9078475292        0.7879112774        6.8490352169
  O         4.7475197489        3.4861332070        2.9144201713
  O         4.7475197877        0.6979643125        2.9144200647
  O         0.7086147596        4.8820618744        5.1144866568
 Al         7.6160697338        6.2761460404        1.0124262710
 Al        10.3018029425        2.0920486422        4.0025639388
 Al        10.3700820482        6.2761459719        1.0054362674
 Al         8.8811257274        6.2761466616        5.9824668410
 Al         7.5183593373        0.6308420829        4.9192884145
 Al         6.1109295379        4.8441672282        6.9226642126
  O        10.3481065221        6.2761460422        7.0225820626
  O         8.8807099164        2.0920490234        5.1409640127
  O         7.4738577229        6.2761460453        7.1436818215
  O         6.2209363199        2.0920492180        5.0345663536
  O        10.3844763857        3.3941224580        7.2188889941
  O         8.8384438085        7.6796419736        4.9270285564
  O         7.4442455431        3.3961868135        6.8490350452
  O         6.2450134314        7.6702311644        5.1144866093
 Al         8.9128531596        2.0920487723        7.0164824252
 Al         6.2271223337        6.2761466869        4.0263444641
 Al         6.1588446938        2.0920488183        7.0234770057
 Al         7.6477983292        2.0920487149        2.0464409372
 Al         9.0105694402        4.8149339219        3.1096190510
 Al         9.0105691337        7.7373585338        3.1096197315
 Al         7.5183592104        3.5532613049        4.9192886103
 Al        10.4179955829        0.6600691971        1.1062419116
 Al        10.4179955401        3.5240281105        1.1062419079
 Al         6.1109296340        7.7081252695        6.9226635829
  O         6.1808218801        2.0920487400        1.0063238251
  O         7.6482154753        6.2761459643        2.8879474126
  O         9.0550674938        2.0920487394        0.8852250167
  O        10.3079877973        6.2761459767        2.9943405678
  O         6.1444524253        7.5782197596        0.8100189790
  O         6.1444524185        4.9740723217        0.8100189999
  O        10.3844764007        0.7899752257        7.2188890736
  O         7.6904819381        3.4955437605        3.1018783631
  O         7.6904819398        0.6885541073        3.1018781182
  O         8.8384443079        4.8726509079        4.9270285805
  O         9.0846793990        7.5802844559        1.1798723173
  O         9.0846794761        4.9720076529        1.1798723061
  O         7.4442456316        0.7879112799        6.8490352149
  O        10.2839178508        3.4861332065        2.9144201673
  O        10.2839178943        0.6979643095        2.9144200620
  O         6.2450128627        4.8820618770        5.1144866524
 Al         2.0796715710       14.6443408228        1.0124262704
 Al         4.7654047795       10.4602434337        4.0025639745
 Al         4.8336838407       14.6443408141        1.0054362712
 Al         3.3447275201       14.6443414379        5.9824668224
 Al         1.9819611455        8.9990366726        4.9192884411
 Al         0.5745313269       13.2123620247        6.9226642102
  O         4.8117083041       14.6443407789        7.0225820562
  O         3.3443117110       10.4602437640        5.1409640244
  O         1.9374595185       14.6443407838        7.1436818185
  O         0.6845381256       10.4602439559        5.0345663717
  O         4.8480781719       11.7623171930        7.2188889922
  O         3.3020455761       16.0478366521        4.9270285456
  O         1.9078473384       11.7643815584        6.8490350516
  O         0.7086152612       16.0384258464        5.1144866236
 Al         3.3764549929       10.4602435102        7.0164824480
 Al         0.6907241727       14.6443414735        4.0263444729
 Al         0.6224465261       10.4602436301        7.0234770327
 Al         2.1114001315       10.4602435056        2.0464409570
 Al         3.4741712553       13.1831287237        3.1096190566
 Al         3.4741709343       16.1055531242        3.1096197299
 Al         1.9819610200       11.9214561056        4.9192886242
 Al         4.8815973859        9.0282639004        1.1062419183
 Al         4.8815973157       11.8922229243        1.1062419039
 Al         0.5745314732       16.0763199428        6.9226635953
  O         0.6444236616       10.4602434846        1.0063238250
  O         2.1118172746       14.6443407106        2.8879474145
  O         3.5186692895       10.4602434827        0.8852250192
  O         4.7715895995       14.6443407189        2.9943405849
  O         0.6080541848       15.9464144715        0.8100189650
  O         0.6080542068       13.3422670627        0.8100189961
  O         4.8480781710        9.1581699406        7.2188890753
  O         2.1540837407       11.8637385152        3.1018783736
  O         2.1540837091        9.0567487855        3.1018781197
  O         3.3020461030       13.2408456539        4.9270285818
  O         3.5482812193       15.9484791519        1.1798723160
  O         3.5482812703       13.3402024026        1.1798723020
  O         1.9078474430        9.1561059666        6.8490352220
  O         4.7475196442       11.8543279549        2.9144201681
  O         4.7475197220        9.0661589961        2.9144200822
  O         0.7086146563       13.2502566221        5.1144866536
 Al         7.6160696334       14.6443408131        1.0124262729
 Al        10.3018028599       10.4602434326        4.0025639517
 Al        10.3700819476       14.6443408158        1.0054362665
 Al         8.8811256024       14.6443414368        5.9824668252
 Al         7.5183592415        8.9990366758        4.9192884315
 Al         6.1109294358       13.2123620170        6.9226642070
  O        10.3481064175       14.6443407797        7.0225820601
  O         8.8807098138       10.4602437607        5.1409640197
  O         7.4738576209       14.6443407823        7.1436818179
  O         6.2209362216       10.4602439570        5.0345663582
  O        10.3844762833       11.7623171972        7.2188889961
  O         8.8384436770       16.0478366545        4.9270285454
  O         7.4442454393       11.7643815550        6.8490350477
  O         6.2450133657       16.0384258471        5.1144866194
 Al         8.9128530557       10.4602435088        7.0164824484
 Al         6.2271222642       14.6443414718        4.0263444605
 Al         6.1588445949       10.4602436337        7.0234770292
 Al         7.6477982060       10.4602435053        2.0464409511
 Al         9.0105693359       13.1831287209        3.1096190491
 Al         9.0105690227       16.1055531289        3.1096197268