#     Step Nr.          Time[fs]        Kin.[a.u.]          Temp[K]            Pot.[a.u.]        Cons Qty[a.u.]        UsedTime[s]
         0            0.000000         0.805162801       300.000000000     -5564.128519619     -5562.518194017         0.000000000
         2            1.000000         0.773005971       288.018511404     -5564.095776234     -5562.517683185       168.648256898
         4            2.000000         0.706782918       263.344102802     -5564.028708643     -5562.516745945       182.973801707
         6            3.000000         0.657245666       244.886747801     -5563.979368782     -5562.516773265       165.591541093
         8            4.000000         0.624505218       232.687805663     -5563.947462258     -5562.517417278       181.159430752
        10            5.000000         0.573925938       213.842195775     -5563.897169114     -5562.517505681       165.718604712
        12            6.000000         0.498014890       185.558084333     -5563.820905312     -5562.516952180       181.568330752
        14            7.000000         0.427319622       159.217348808     -5563.749772234     -5562.516357044       182.911642806
        16            8.000000         0.394885195       147.132428644     -5563.717456659     -5562.516424188       183.441392507
        18            9.000000         0.397187786       147.990363608     -5563.720272255     -5562.516989867       167.421428866
        20           10.000000         0.403478412       150.334222406     -5563.726680787     -5562.517194438       182.927583891
        22           11.000000         0.401254300       149.505528441     -5563.724111733     -5562.516924787       201.398490066
        24           12.000000         0.404501703       150.715496012     -5563.727146641     -5562.516809695       200.396727514
        26           13.000000         0.420170676       156.553684210     -5563.742820264     -5562.516984444       199.950775235
        28           14.000000         0.439093581       163.604272531     -5563.761691710     -5562.517145013       183.256656711
        30           15.000000         0.450896241       168.001890131     -5563.773349461     -5562.517169046       181.592881705
        32           16.000000         0.453571111       168.998534386     -5563.775842514     -5562.517087953       182.619187201
        34           17.000000         0.451030404       168.051878655     -5563.773189316     -5562.517080158       165.086235425
        36           18.000000         0.443281530       165.164683200     -5563.765318785     -5562.517141485       183.016773377
        38           19.000000         0.427425750       159.256891862     -5563.749119730     -5562.517045174       182.074313093
        40           20.000000         0.408725342       152.289204821     -5563.729957966     -5562.516851856       180.881416045
        42           21.000000         0.396458918       147.718790676     -5563.717460902     -5562.516931024       183.718066496
        44           22.000000         0.386427127       143.980990999     -5563.707202274     -5562.517105987       165.370267935
        46           23.000000         0.369147550       137.542699397     -5563.689344227     -5562.517010003       181.999659002
        48           24.000000         0.349558728       130.243993396     -5563.668942920     -5562.516705655       182.522752188
        50           25.000000         0.343658605       128.045634339     -5563.662472216     -5562.516641750       183.691175552
        52           26.000000         0.354498007       132.084346178     -5563.673052855     -5562.516923388       182.030652596
        54           27.000000         0.366953602       136.725244392     -5563.685060332     -5562.517084208       183.444887239
        56           28.000000         0.371374396       138.372411798     -5563.688661718     -5562.516907596       183.664369188
        58           29.000000         0.376506781       140.284715461     -5563.692951628     -5562.516703288       182.224593487
        60           30.000000         0.392422422       146.214810931     -5563.708348857     -5562.516842447       165.710878956
        62           31.000000         0.411213671       153.216344576     -5563.726660236     -5562.517067623       181.820278512
        64           32.000000         0.419019478       156.124752784     -5563.733748279     -5562.517055470       182.407573930
        66           33.000000         0.414945913       154.606961219     -5563.728820412     -5562.516840635       181.208003591
        68           34.000000         0.410730428       153.036290574     -5563.723862890     -5562.516703258       181.206010151
        70           35.000000         0.413627999       154.115912531     -5563.726230708     -5562.516856688       181.628545781
        72           36.000000         0.415244789       154.718321080     -5563.727211075     -5562.517010106       182.712542437
        74           37.000000         0.407425243       151.804793867     -5563.718420364     -5562.516835588       201.367208720
        76           38.000000         0.400069044       149.063907223     -5563.710078666     -5562.516588308       199.183031046
        78           39.000000         0.405609258       151.128165873     -5563.715026964     -5562.516736020       200.461134982
        80           40.000000         0.417061652       155.395275923     -5563.725812756     -5562.516917294       200.827963126
        82           41.000000         0.424000337       157.980598467     -5563.731635532     -5562.516794648       199.668880355
        84           42.000000         0.431180566       160.655918925     -5563.737551931     -5562.516623527       202.145263310
        86           43.000000         0.446947755       166.530702101     -5563.752201364     -5562.516676015       200.054675326
        88           44.000000         0.467102873       174.040407255     -5563.771306667     -5562.516925805       199.861997636
        90           45.000000         0.477572954       177.941511896     -5563.780403971     -5562.517000732       200.177065731
        92           46.000000         0.473759981       176.520815574     -5563.774836387     -5562.516757094       202.445485649
        94           47.000000         0.468440616       174.538844250     -5563.767844555     -5562.516568879       181.877115884
        96           48.000000         0.471655320       175.736628584     -5563.769797003     -5562.516763754       165.308498744
        98           49.000000         0.473170837       176.301303125     -5563.770093071     -5562.517021938       182.981444241
       100           50.000000         0.458471219       170.824292422     -5563.753794040     -5562.516951407       183.621600760
       102           51.000000         0.431486408       160.769874535     -5563.724866506     -5562.516604412       198.620423482
       104           52.000000         0.411567296       153.348103720     -5563.703085496     -5562.516423909       200.224497603
       106           53.000000         0.407465408       151.819759085     -5563.697470026     -5562.516683300       199.275318302
       108           54.000000         0.405157995       150.960027221     -5563.693558643     -5562.516877703       182.737274807
       110           55.000000         0.392647731       146.298759921     -5563.679157147     -5562.516702127       184.246338061
       112           56.000000         0.379499802       141.399901299     -5563.664111209     -5562.516440487       184.570487089
       114           57.000000         0.380323780       141.706911599     -5563.663335383     -5562.516516337       183.248148558
       116           58.000000         0.391053085       145.704602003     -5563.672562069     -5562.516789269       182.288375388
       118           59.000000         0.397266262       148.019603575     -5563.676914391     -5562.516754519       182.492072817
       120           60.000000         0.399658840       148.911067121     -5563.677247540     -5562.516524556       181.950992857
       122           61.000000         0.409126535       152.438687265     -5563.684851610     -5562.516541183       165.294390195
       124           62.000000         0.424232933       158.067262469     -5563.698169559     -5562.516780192       181.911607047
       126           63.000000         0.431939087       160.938540653     -5563.703720083     -5562.516803083       181.482998892
       128           64.000000         0.429448748       160.010651678     -5563.698810598     -5562.516593536       181.671098681
       130           65.000000         0.427607368       159.324561665     -5563.694685700     -5562.516476692       181.159732179
       132           66.000000         0.432478302       161.139449702     -5563.697504930     -5562.516618786       166.090911742
       134           67.000000         0.435438634       162.242455941     -5563.698351020     -5562.516813444       181.530255526
       136           68.000000         0.425020737       158.360794596     -5563.685434509     -5562.516705983       182.006021301
       138           69.000000         0.406620484       151.504944212     -5563.664326417     -5562.516371348       181.366938878
       140           70.000000         0.397207822       147.997828925     -5563.652511335     -5562.516326037       200.452709699
       142           71.000000         0.399624486       148.898266918     -5563.652746244     -5562.516598537       200.213992885
       144           72.000000         0.399801168       148.964097947     -5563.650422080     -5562.516699695       182.023369679
       146           73.000000         0.391642464       145.924202141     -5563.639338225     -5562.516465768       198.719667526
       148           74.000000         0.387269056       144.294690201     -5563.632001150     -5562.516267939       199.726274084
       150           75.000000         0.396604125       147.772894448     -5563.638533059     -5562.516388216       199.747584445
       152           76.000000         0.413365883       154.018249153     -5563.652360964     -5562.516580575       200.739629868
       154           77.000000         0.425903890       158.689853722     -5563.661639123     -5562.516589185       199.342374753
       156           78.000000         0.433488557       161.515865858     -5563.665641911     -5562.516368241       200.948730741
       158           79.000000         0.446260453       166.274616433     -5563.674849932     -5562.516328912       200.802884334
       160           80.000000         0.465788069       173.550517284     -5563.690792194     -5562.516539367       198.916336119
       162           81.000000         0.480237189       178.934193897     -5563.701280067     -5562.516605351       198.743851837
       164           82.000000         0.485072395       180.735769426     -5563.701808739     -5562.516387581       199.223246430
       166           83.000000         0.489516885       182.391766488     -5563.702115285     -5562.516317417       199.829675804
       168           84.000000         0.497526351       185.376056842     -5563.706153603     -5562.516462530       199.969320381
       170           85.000000         0.500728517       186.569169436     -5563.705235065     -5562.516571146       182.051185254
       172           86.000000         0.493301290       183.801818531     -5563.693386790     -5562.516438091       201.670882739
       174           87.000000         0.482165341       179.652614391     -5563.677778667     -5562.516213308       199.032151162
       176           88.000000         0.478726162       178.371192121     -5563.670142151     -5562.516240539       199.596884577
       178           89.000000         0.480781738       179.137090184     -5563.668133689     -5562.516493499       200.720636955
       180           90.000000         0.474202360       176.685643967     -5563.657167720     -5562.516497014       199.818578899
       182           91.000000         0.457584298       170.493829473     -5563.635930575     -5562.516175284       198.149283434
       184           92.000000         0.447281821       166.655173410     -5563.621271038     -5562.516009557       200.700331359
       186           93.000000         0.451688062       168.296918938     -5563.621604864     -5562.516215369       183.037009605
       188           94.000000         0.459657916       171.266450296     -5563.625319048     -5562.516446308       182.525673373
       190           95.000000         0.457895883       170.609924648     -5563.618872610     -5562.516347620       180.374763781
       192           96.000000         0.450973952       168.030844548     -5563.607086527     -5562.516009816       181.069734228
       194           97.000000         0.456219952       169.985480652     -5563.607737138     -5562.515945099       180.995217756
       196           98.000000         0.476547545       177.559449362     -5563.623644663     -5562.516282208       179.856409405
       198           99.000000         0.493311557       183.805644017     -5563.635570228     -5562.516489748       181.105547725
       200          100.000000         0.493829450       183.998608406     -5563.630699207     -5562.516260962       264.247115246
       202          101.000000         0.488961036       182.184659552     -5563.620402578     -5562.515964875       182.266325836
       204          102.000000         0.494055814       184.082950635     -5563.620403255     -5562.516027469       182.947749111
       206          103.000000         0.505180858       188.228091556     -5563.626530062     -5562.516306962       181.768061108
       208          104.000000         0.506423629       188.691142358     -5563.622465614     -5562.516325839       182.346572746
       210          105.000000         0.495184978       184.503671917     -5563.605743987     -5562.516051698       182.001476846
       212          106.000000         0.485265112       180.807574960     -5563.590535242     -5562.515856761       181.162725871
       214          107.000000         0.486797697       181.378609322     -5563.587029584     -5562.515966323       182.090461921
       216          108.000000         0.493773191       183.977646478     -5563.588874430     -5562.516102361       182.609428839
       218          109.000000         0.497757141       185.462048282     -5563.587505658     -5562.516011108       180.206644856
       220          110.000000         0.501474048       186.846951121     -5563.585931387     -5562.515916022       181.294271599
       222          111.000000         0.509617930       189.881324344     -5563.588831805     -5562.515916850       182.866945980
       224          112.000000         0.521798531       194.419760954     -5563.595651350     -5562.515984208       183.692835392
       226          113.000000         0.533328583       198.715805916     -5563.601613425     -5562.516042308       180.734522135
       228          114.000000         0.540043469       201.217741847     -5563.602550580     -5562.516002123       181.072244258
       230          115.000000         0.543346988       202.448618262     -5563.599897200     -5562.515900508       182.002176287
       232          116.000000         0.547665488       204.057671387     -5563.598125457     -5562.515934954       182.342712036
       234          117.000000         0.550515402       205.119536659     -5563.594549464     -5562.515967979       182.864715625
       236          118.000000         0.548987336       204.550186261     -5563.586249506     -5562.515823460       182.474583747
       238          119.000000         0.547818203       204.114572476     -5563.578410675     -5562.515811098       181.206414035
       240          120.000000         0.547750863       204.089481850     -5563.571628489     -5562.515815316       182.542588744
       242          121.000000         0.547905188       204.146982587     -5563.564881808     -5562.515749241       181.407002692
       244          122.000000         0.550710114       205.192085291     -5563.560703226     -5562.515701767       183.786326848
       246          123.000000         0.557942423       207.886810707     -5563.560957493     -5562.515708912       182.762068871
       248          124.000000         0.568572588       211.847561968     -5563.564568331     -5562.515743183       180.660901646
       250          125.000000         0.579470321       215.908007837     -5563.568290625     -5562.515785551       184.085466686
       252          126.000000         0.587780384       219.004299539     -5563.569081479     -5562.515705263       182.124226575
       254          127.000000         0.596751715       222.346976527     -5563.570281387     -5562.515578762       181.686216646
       256          128.000000         0.611237784       227.744420195     -5563.576938264     -5562.515634914       183.438530013
       258          129.000000         0.626988432       233.613039927     -5563.584603408     -5562.515741976       181.792593798
       260          130.000000         0.636297203       237.081445876     -5563.585441004     -5562.515749039       182.467770503
       262          131.000000         0.637269945       237.443884869     -5563.577643119     -5562.515625022       181.693559671
       264          132.000000         0.635686979       236.854078990     -5563.567217345     -5562.515501750       184.950480060
       266          133.000000         0.637084054       237.374622678     -5563.559841432     -5562.515554522       181.274482171
       268          134.000000         0.637708086       237.607134407     -5563.551592970     -5562.515670276       182.717491888
       270          135.000000         0.630572713       234.948526645     -5563.535303015     -5562.515594388       182.499515681
       272          136.000000         0.617702574       230.153171503     -5563.513239707     -5562.515462639       181.721745276
       274          137.000000         0.604945326       225.399878672     -5563.491406404     -5562.515426405       180.733167335
       276          138.000000         0.593717948       221.216608965     -5563.471119212     -5562.515379940       181.249668544
       278          139.000000         0.585621913       218.200063048     -5563.454007253     -5562.515278121       183.602232684
       280          140.000000         0.584635593       217.832564487     -5563.444203111     -5562.515257860       181.294280670
       282          141.000000         0.590797658       220.128522234     -5563.441609115     -5562.515328457       181.776104265
       284          142.000000         0.599595272       223.406472857     -5563.441351031     -5562.515319703       181.224065422
       286          143.000000         0.609806155       227.211001798     -5563.442224303     -5562.515247237       182.265127160
       288          144.000000         0.624160434       232.559340641     -5563.447158888     -5562.515124258       182.167343481
       290          145.000000         0.647808143       241.370369648     -5563.461524901     -5562.515113620       182.324254762
       292          146.000000         0.678638309       252.857549537     -5563.483173674     -5562.515384607       181.483725568
       294          147.000000         0.700592251       261.037488202     -5563.495490071     -5562.515518005       182.148287164
       296          148.000000         0.704753254       262.587859053     -5563.489474222     -5562.515250518       181.865669077
       298          149.000000         0.704174501       262.372218563     -5563.478755226     -5562.514922512       183.264528090
       300          150.000000         0.714944506       266.385073424     -5563.479856499     -5562.515083518       183.561472445
       302          151.000000         0.728561932       271.458864211     -5563.483621584     -5562.515392001       183.815900848
       304          152.000000         0.727449225       271.044274952     -5563.471960269     -5562.515315755       181.628389492
       306          153.000000         0.712705374       265.550782926     -5563.446473793     -5562.514973485       182.289389715
       308          154.000000         0.702161510       261.622187142     -5563.425556231     -5562.514724803       181.180443826
       310          155.000000         0.707337654       263.550794772     -5563.420840119     -5562.514946203       182.452162857
       312          156.000000         0.716002722       266.779359912     -5563.419268996     -5562.515129036       182.202365340
       314          157.000000         0.715588293       266.624945596     -5563.408081931     -5562.514998791       184.728996304
       316          158.000000         0.710841316       264.856243325     -5563.392519121     -5562.514731356       182.945046186
       318          159.000000         0.714743181       266.310060601     -5563.386004800     -5562.514730823       181.804127122
       320          160.000000         0.727226509       270.961291865     -5563.388099322     -5562.514942539       181.172855916
       322          161.000000         0.736109160       274.270927384     -5563.386116357     -5562.515012461       181.435826518
       324          162.000000         0.735725723       274.128060458     -5563.374536059     -5562.514797061       182.897420713
       326          163.000000         0.736768920       274.516750883     -5563.364520815     -5562.514509290       181.423604534
       328          164.000000         0.751244017       279.910106067     -5563.368459473     -5562.514738876       183.271515116
       330          165.000000         0.765529726       285.232896342     -5563.371988634     -5562.515015542       182.370822264
       332          166.000000         0.762567124       284.129044523     -5563.357629630     -5562.514749551       181.455134355
       334          167.000000         0.754038884       280.951460992     -5563.337747402     -5562.514273637       182.107234419
       336          168.000000         0.762578093       284.133131228     -5563.335736414     -5562.514454225       182.447696379
       338          169.000000         0.779487130       290.433361826     -5563.342005797     -5562.514863425       180.967260111
       340          170.000000         0.782252932       291.463886880     -5563.333259689     -5562.514839968       183.590033834
       342          171.000000         0.769136989       286.576946018     -5563.308224110     -5562.514493949       180.926407309
       344          172.000000         0.759693806       283.058459180     -5563.286966480     -5562.514084982       199.779362389
       346          173.000000         0.773772326       288.304051524     -5563.289766661     -5562.514335761       197.990404749
       348          174.000000         0.797331873       297.082231904     -5563.301701747     -5562.514813771       198.858686877
       350          175.000000         0.803632040       299.429645256     -5563.295188395     -5562.514607487       198.804187839
       352          176.000000         0.798898898       297.666098241     -5563.277292388     -5562.514071337       198.882475663
       354          177.000000         0.808466715       301.231023478     -5563.274424283     -5562.514099810       198.524399355
       356          178.000000         0.831631283       309.862035917     -5563.285258399     -5562.514335453       198.624760507
       358          179.000000         0.853621243       318.055395231     -5563.294525890     -5562.514499046       198.712921100
       360          180.000000         0.862857572       321.496809283     -5563.290660314     -5562.514501273       197.875830552
       362          181.000000         0.860615759       320.661520180     -5563.274914207     -5562.514095956       198.843556842
       364          182.000000         0.865014470       322.300459832     -5563.266173153     -5562.514131326       200.713230250
       366          183.000000         0.873964801       325.635312361     -5563.261889545     -5562.514376200       199.293673647
       368          184.000000         0.872424525       325.061412775     -5563.246519596     -5562.514195349       199.682275772
       370          185.000000         0.867361469       323.174941009     -5563.227610157     -5562.513797878       199.553249056
       372          186.000000         0.874434951       325.810488090     -5563.221734517     -5562.514030767       198.009538931
       374          187.000000         0.882963307       328.988114841     -5563.217231042     -5562.514138138       199.728817851
       376          188.000000         0.885370796       329.885134443     -5563.206233686     -5562.513902066       199.024026298
       378          189.000000         0.890383798       331.752956054     -5563.198155806     -5562.513884749       199.206737343
       380          190.000000         0.900384807       335.479286759     -5563.195227603     -5562.513871454       198.646062076
       382          191.000000         0.915209729       341.002985019     -5563.197210086     -5562.513939377       197.216835417
       384          192.000000         0.928201113       345.843515643     -5563.197362808     -5562.514144488       197.828006557
       386          193.000000         0.926426126       345.182163725     -5563.182482836     -5562.513997735       198.156710365
       388          194.000000         0.916944478       341.649344799     -5563.159909372     -5562.513352979       197.535503864
       390          195.000000         0.927591298       345.616301567     -5563.158782259     -5562.513560257       198.328175892
       392          196.000000         0.947196376       352.921064492     -5563.166865283     -5562.514036539       198.958574025
       394          197.000000         0.949392028       353.739154303     -5563.156717259     -5562.513857856       181.251768236
       396          198.000000         0.940780794       350.530647763     -5563.135635514     -5562.513472855       182.113483143
       398          199.000000         0.942997896       351.356729969     -5563.125796642     -5562.513384878       180.058975209
       400          200.000000         0.960463108       357.864188323     -5563.131412839     -5562.513702949       181.125455254
       402          201.000000         0.976643236       363.892830820     -5563.135171478     -5562.513834912       181.003212217
       404          202.000000         0.978694908       364.657274209     -5563.124432379     -5562.513836942       180.552901491
       406          203.000000         0.968286043       360.778978420     -5563.100600958     -5562.513270534       179.935073979
       408          204.000000         0.969978947       361.409747015     -5563.089296472     -5562.513266936       180.613456624
       410          205.000000         0.982906126       366.226354897     -5563.089190782     -5562.513625777       179.827949235
       412          206.000000         0.985789173       367.300565115     -5563.078298821     -5562.513614196       182.825915849
       414          207.000000         0.975518317       363.473690824     -5563.053947755     -5562.513274361       182.081337290
       416          208.000000         0.970518401       361.610744969     -5563.035064128     -5562.512896513       179.008131503
       418          209.000000         0.987260361       367.848723193     -5563.038711224     -5562.513317379       180.398535800
       420          210.000000         1.005187750       374.528386963     -5563.043280163     -5562.513595872       179.892737831
       422          211.000000         1.006765227       375.116147713     -5563.031205233     -5562.513271004       197.589500685
       424          212.000000         1.007739082       375.479001403     -5563.019087878     -5562.512898186       198.861258584
       426          213.000000         1.027136253       382.706299245     -5563.026270267     -5562.513146541       198.363080534
       428          214.000000         1.052448067       392.137366014     -5563.039141708     -5562.513487052       180.925270583
       430          215.000000         1.063264756       396.167615313     -5563.036666205     -5562.513385431       179.649717808
       432          216.000000         1.060763016       395.235478449     -5563.020667981     -5562.513094622       181.245167425
       434          217.000000         1.061635106       395.560415128     -5563.008186124     -5562.512737636       180.551037740
       436          218.000000         1.081214909       402.855760690     -5563.015066431     -5562.513061831       179.302482035
       438          219.000000         1.102143921       410.653815312     -5563.023021167     -5562.513406190       196.784848690
       440          220.000000         1.102435404       410.762420744     -5563.009746687     -5562.513290652       198.354626015
       442          221.000000         1.089855961       406.075377335     -5562.983260537     -5562.512630932       197.385180235
       444          222.000000         1.096760666       408.648039056     -5562.977223520     -5562.512687970       195.176745784
       446          223.000000         1.121751546       417.959527509     -5562.989754629     -5562.513183732       196.430659444
       448          224.000000         1.136737572       423.543252489     -5562.991886128     -5562.513364887       199.019775838
       450          225.000000         1.130128683       421.080810411     -5562.971880208     -5562.513024829       197.997300086
       452          226.000000         1.122225266       418.136033252     -5562.950460523     -5562.512487396       197.734396554
       454          227.000000         1.138735302       424.287597629     -5562.954436495     -5562.512871318       197.489751051