 # Version information for this restart file 
 # current date 2025-05-14 21:53:27.891
 # current working dir /scratch4/nmitra1/silica_cp2k/1000_70_cell222/epoxyadsorb_zslab/dftd3bjrelaxaimd_silicaepoxywtr
 # Program compiled at                              Wed May 17 21:13:02 EDT 2023
 # Program compiled on                                                      c718
 # Program compiled for                            linux-centos8-cascadelake-gcc
 # Source code revision number                                       git:a8a26f8
 &GLOBAL
   EXTENDED_FFT_LENGTHS  T
   PRINT_LEVEL  LOW
   PROJECT_NAME Silicazslab_epoxywtr
   RUN_TYPE  MD
 &END GLOBAL
 &MOTION
   &MD
     ENSEMBLE  NVT
     STEPS  1000
     TIMESTEP     4.9999999999999994E-01
     STEP_START_VAL  6016
     TIME_START_VAL     3.0079999999997181E+03
     ECONS_START_VAL    -5.5625181940173607E+03
     TEMPERATURE     3.0000000000000000E+02
     &THERMOSTAT
       TYPE  NOSE
       REGION  MASSIVE
       &NOSE
         TIMECON     9.9999999999999986E+01
         &COORD
               1.4961133900459826E+01    3.5393961983649236E-01    8.4191245362069311E-01    1.4684835618806945E+01 \
              -1.7228194293970436E+00    5.9167963814330682E-01   -1.5439756337872439E+01   -3.6800866676582666E+00    5.7300683438407356E+00 \
               1.3238453855723048E+01    6.1517455308677438E-01   -4.2938905946689241E+00   -4.1634272467420823E+00   -1.2113969512861704E+01 \
               8.5888979342211726E+00    6.5123720132330760E+00   -1.0298597814469629E+01    1.0298356594110082E+01   -4.2867423950249943E+00 \
              -3.7605209729658058E+00    2.1625782307821835E+00    1.7293275863712534E+00    5.2346952148459120E+00   -3.4044823948283747E+00 \
               6.6132244208709858E+00    4.5167783026964887E+00   -1.6548916106890734E+00    1.2040614039721648E+01    3.6192262824434458E+00 \
              -7.2860405590210711E+00    1.1137602695877729E+00    7.9962885387215312E+00   -1.0019099739766657E+01    5.1358776245426565E+00 \
              -6.3617734810621487E+00    5.8233981492347118E+00    2.2439308332595608E+01    9.7215247231706758E-01   -1.0701545048586005E+00 \
              -4.3430549579617166E-02   -1.2599511400056005E+00   -6.6751727309447828E-01    2.7763180673703586E-01   -1.2945241862926030E+01 \
               7.9258277682395173E+00   -1.6073824526407773E+01   -3.7471624523283964E+00   -2.4020758661693278E+00    1.3117716727165296E-01 \
              -5.0376997224753168E+00   -1.2049783401856151E-01   -1.3689801113758003E+01    4.5631362833488742E+00   -3.0540824730596161E+00 \
              -7.8535988836814132E+00   -2.7749731281028929E+00    1.2121493996954897E+00   -1.1493241906311210E+01    1.2787374116404550E+01 \
              -6.3812307580608012E+00   -2.5332487078402384E+00   -6.1744116895119729E+00    2.5745923274017607E-01    3.2145755963991802E+00 \
               3.3262035853516809E+00   -2.8118002882846902E+00    1.3064839880709510E+01   -4.3604399781641208E+00    4.1664575582912242E+00 \
              -7.9742438994177904E+00    2.8152552570715015E+00    4.4856583927079613E-01   -6.5624507137857757E-01    4.8530200549204663E+00 \
              -8.6550655435203563E+00    9.8960968794457855E+00   -9.5203099972798952E+00    1.0718314693993143E+01   -3.5085961054309417E-01 \
              -8.0686977479511732E+00    8.7152236309009670E+00    7.9677984338245480E+00   -4.6016552804647874E+00    5.2170016735914189E+00 \
               8.3277026224425867E+00    8.2236253055730337E+00   -4.4436570080052062E+00   -9.9783166257460341E+00   -1.9299808110967467E+00 \
               1.7897649173512693E+00   -6.6909749690115232E+00    1.9929382590117959E+00   -1.9534469036726823E+00   -1.4687355059915989E+01 \
               5.0756305735939975E+00   -6.4302316136626638E+00    1.0525641368777652E+01    5.7551615796151587E+00   -7.8115324419917842E+00 \
              -1.4730805727771570E+00   -4.4467438342147891E-01    3.3570375460487130E+00    1.4560859813336558E+01   -4.5489038422877472E+00 \
              -4.5075567789551920E+00    5.9987261321169134E+00   -5.2866577752377095E+00    3.3119355373112005E+00    9.7522035423774611E-01 \
               7.9143786897480943E+00   -7.0227047950254118E+00    6.2999216827994653E-01    1.0486501586058357E-01   -3.6226897954001256E+00 \
              -1.2328704680724128E+01   -1.2494758392538476E+00   -9.3957701574839780E-01    7.5154587070392920E-01   -2.1078717154443649E+00 \
              -6.8282816096582026E+00   -2.4335800150979846E+01   -4.0665617065116004E+00    2.4800810225906238E+00    9.8729809579897800E+00 \
              -6.0307055048986582E+00    1.9278221787789247E+00   -1.7879439755867764E+01   -6.9248116669309718E+00    1.8178179029315626E+00 \
              -5.7276940307889168E+00   -4.5421136429081796E+00    3.3218379884087699E+00    2.7685574196860738E+00    5.9821684275630838E-01 \
               3.6307453672805878E+00   -1.8704618482592736E+00   -3.2010759600031280E+00    2.7204883095368908E+00   -6.7394414796184199E+00 \
              -1.8407717183445211E+00   -2.1141359494515402E+00   -1.3524458603596139E+01   -7.1779860754934088E-02    5.4788856920052176E-01 \
               5.0007342195867013E+00    6.5102800141004424E+00   -5.1145631078005627E+00    8.2688398412974884E+00   -1.6834175401691993E+00 \
               9.8398684523177060E+00    1.8333903697206949E+01   -2.9381503619292930E+00    3.1576532598237979E+00    8.9232700610054678E+00 \
              -1.3550781277530330E-01    9.4945880547082628E-01    4.8339821334812445E+00   -9.3232104245934586E+00    5.6246843646226941E+00 \
              -1.3159556654414473E+01   -1.0089375304395977E+01    8.5700720059611104E+00   -2.4694157409542888E-01    7.3510675119554394E+00 \
              -4.5926753035292339E-03   -1.4882226767876590E+01    6.2243882670100730E+00   -4.1603079746731133E+00   -5.3337658923130151E+00 \
               5.4285875926194305E-01   -1.0998145835475674E+00   -4.5274762049144734E-01   -4.5239305562042649E+00    5.4114700622297232E+00 \
              -1.5017139923974311E+01   -4.6713694499017393E+00    6.2472957540554610E+00   -5.0881225091877225E+00   -5.2134702495487275E+00 \
               3.7406987325061167E+00    3.2857008334753041E-01   -9.6905556296522755E-01   -7.4170382000182633E-01   -6.0792740915363517E+00 \
               2.6805149922099458E+00    3.3662422419385885E-01   -2.0129973139805028E+01   -3.5238209972650174E+00    4.1101388789962234E+00 \
               1.7339623494043657E+01    3.5305805061771578E-01    7.6415237860163343E-01    1.1621089688138367E+01    7.0658433329856318E-01 \
              -4.0317253277566332E+00   -2.2433515768740545E+01   -8.7605465074310451E-01   -4.3572592324122965E+00   -8.3966657884698226E-01 \
               1.3550245753316195E-01   -1.7806881573174160E-01    1.7569111415416391E+01   -1.5500775807874625E+00    1.3815524952724674E+00 \
              -1.5937816742683871E+01    1.9774668243033044E+00   -2.8981525679357865E+00   -4.1427067801395161E+00   -4.4020431502063273E+00 \
               8.5882378116991429E+00   -7.7233246805138389E+00    8.8566332853761462E+00   -5.0606901015242807E+00    8.2106977837170767E+00 \
              -5.4048570444204005E+00    3.9237770101707716E+00    1.4367738532880482E+01    1.3648204747905239E+00   -3.7823528791918304E+00 \
               1.3214634593852013E+01    3.8936657072919001E+00   -3.7492849507044075E+00   -3.7866333294755150E+00    1.6212046003626339E+00 \
              -3.8921246023874723E+00   -6.6773109274308675E+00    8.9206974306945011E+00   -6.2521472864665242E+00   -8.9403649469821929E+00 \
               2.6345098632500656E+00    2.6609422422962052E+00    1.1874126607820491E+01    5.6333234509204813E+00   -6.5200523004791311E+00 \
               2.4891166879876572E+00   -4.2188966416710878E+00    4.3477057867149110E-01    1.4923856948063301E+01    1.6858572288696818E+00 \
              -3.9147965464341370E+00   -8.6694013481257777E+00    1.6929305427861778E+00   -1.0391113023057033E+00    6.2001253317005371E+00 \
               3.2872659543467426E+00   -4.5810636025623541E+00   -1.1409096096670069E+01   -2.4722287007187389E+00    3.8479893664332891E+00 \
               3.6333139762801290E+00   -5.0566473366747100E-01   -6.2236964810936168E-01   -1.4824614178015931E+01    6.8602906072402572E+00 \
              -8.5351805423196954E+00    4.1686973279990336E-01    5.3727509546958201E+00   -2.4383780171005629E+00    4.1541845225846945E+00 \
              -4.1927521657944693E+00   -9.2934749540431505E-01   -2.5301215901579210E+00   -1.0677174686976418E+01    1.2945488775847506E+01 \
               3.6756875605558221E+00    4.2734954657971402E-01   -7.1592287674393287E+00   -1.5856551676367279E+00   -1.5954103889655131E+00 \
               1.7002071680945190E+00   -9.8108369391148855E+00    5.0799377646963597E+00   -2.9256365142092009E+00    1.4656388903182798E+01 \
               1.9329933799904884E+00   -2.6953467204627723E+00   -1.2929444260277204E+01    1.0320401696219006E+00   -7.1801129431018893E+00 \
               8.2307065510590749E-01    6.8638767621307570E+00   -3.4684997181029606E+00    4.0168609834257083E+00    5.4054363758107427E-01 \
               7.3306814288975826E+00   -9.0387098687163236E-01   -1.0079265762762466E+01    1.2625561868652976E+01    7.1459147213645267E+00 \
              -7.0005372858995338E+00    3.8630349562156092E+00   -2.2191026877862782E+01    1.3448262740974770E+00   -4.4197408020224858E+00 \
               1.2329865820211472E+01   -6.9173197921016545E+00   -2.5744497211136030E+00   -6.2272584838380336E+00    4.4457477048473795E+00 \
              -2.6974859772243946E+00    3.0988296461923914E+00   -3.6507228340811690E+00   -9.1291257332496401E-01    3.5620866807542035E+00 \
              -1.3143371115347065E+01    9.3042034803377209E+00    1.6247535709026621E+01    5.5025671743165966E-03   -2.8814139335320488E+00 \
              -1.3708586198680067E+01    3.4725018309331213E+00   -3.9074470497601657E+00   -1.0349468853850819E+01   -3.6451936212327607E+00 \
               6.1087423776051137E+00   -2.8708131748561607E+00   -5.3067161490003176E+00    3.3781293292550783E+00   -1.9938595485605048E-01 \
              -7.2680410651016700E+00    1.0184361678301624E+01    4.1882370708260499E+00    3.6289505768742099E+00   -5.1018518847772585E+00 \
               6.8996271886106948E+00   -4.2471017451692805E-01   -1.4630981714705273E+00   -1.8442562174246520E+00    9.3204758346683303E-01 \
               5.6404565735713752E-01    8.3491454473892457E+00   -6.3585527575404441E+00    3.6692298529242877E+00   -1.5647174002475495E+00 \
              -8.9485634131467173E-01   -4.7769130548865107E-01   -1.3238107868037666E+01   -1.6923822324613544E+00    6.7668078929938389E+00 \
              -1.6635693049288719E+01    3.0879462946625380E+00    8.1653514205193212E-01   -3.8507423193130745E+00    3.8043157069786853E+00 \
              -2.4556428967562782E+00   -5.1688297563298038E+00    5.9588599539224854E+00   -7.2305359714875328E+00    1.4442420398178349E-01 \
              -5.6345789427825013E+00    1.7545697222353804E+00   -9.3963472493026661E+00   -6.3966567317706202E-01   -2.9764395862566233E+00 \
               2.3972389903435047E+00   -3.7467765388466647E+00   -4.4930584733704348E-01   -5.1506730765693511E+00    9.4578676168706532E-01 \
               1.8802086787442238E+00    5.0710952325299381E+00    1.3138440561710174E+00    2.9792309384667575E+00   -1.4282774711196325E+01 \
              -4.5497921294933308E+00   -1.3979844096395764E+00   -6.9525689648930991E+00    4.0689524742328285E+00    1.4998935805547116E+00 \
              -1.0219746629757072E+00    2.0645185238970332E-01    2.6127134780957895E+00   -1.2879482304866023E+01   -3.4496073114649897E+00 \
               5.3195972648358056E+00    3.0558912413487231E+00   -2.9421222392116273E+00    1.8993975069923517E+00   -4.2103710901345248E-01 \
               7.0515513228713527E+00    1.7763850456389421E+00   -3.4982439448464229E+00   -5.1189531356271516E+00   -1.2729361985702130E+00 \
               1.8959365146759115E+01   -8.7244340428105013E-02   -2.3412392584582248E-01   -8.1231047273752779E+00   -4.5654775857996919E+00 \
               2.9197987670906431E+00    1.9119398381398192E+01   -1.1837803020762077E+00   -9.4512869037801406E-01    9.7616607682899765E+00 \
              -8.2923677582681190E+00    1.3459497997908882E+01    5.1562317068388426E+00    2.2189976360774315E+00   -4.5398003831868285E+00 \
               3.5272275468956976E-01    1.2275020804520720E+01   -1.2914702382230979E+01    6.4852776924437694E-01    5.0530806281227136E-01 \
              -2.5829433007792475E+00    4.2545576372923524E+00    1.2717736893222666E+01   -1.0431196128206281E+01    9.9137941567182661E+00 \
               4.3205126077653100E+00   -9.2709344129715738E+00   -1.2468620618911533E+01   -2.7438817635516394E-01    1.1880855689153644E+00 \
              -1.3915708264039303E+01    5.1753338988867337E-01    2.1270340284888491E+00   -7.9535594898081001E+00    9.4378370702367498E+00 \
              -4.6184287688013530E+00    1.4163989835584344E+01    6.2755999205278119E+00   -1.0304549844807244E+01   -3.9436017800777461E+00 \
               3.3335316087213060E+00    1.8111219030876748E+00    4.3299964637780819E-01    2.4827320325851585E-01    1.2082246333448850E+01 \
               2.1879123805625587E+00   -5.0428210625666123E+00    2.6201231872033874E+00   -1.5195116904932213E+00   -7.5825877560953592E-01 \
               1.8678465662471309E+00   -3.8453625859524432E+00    3.8576323767587213E+00   -5.2839793929406937E+00   -1.1398375908446827E+01 \
              -5.1504658628533839E+00   -8.2647993591837798E-01   -6.0879853973626670E+00   -3.3757800164083596E-01    6.6181663205940447E-02 \
               1.2287333172862397E+01   -4.7701774259106164E+00    9.1448047182311909E-01   -8.8396343209724293E+00   -1.3059866374461964E+00 \
               4.0663037848782011E+00    6.1507808954947425E+00   -1.0931930120519997E+00    2.4087838142833515E+00    1.2882915248946732E+01 \
               1.4345163236411516E+00    1.1164294173079241E+00    5.0586420000158117E-01    2.8894765752435414E+00   -2.7209578711592610E+00 \
              -2.2280164776968800E+00    4.2270935133944372E+00    1.5915577117526089E-01   -5.9754846387181288E+00   -5.0789476910459754E+00 \
               1.0049535489232571E+00   -1.0130681844573943E+00    5.9008007149885977E-01   -1.8134216171620978E+00   -6.6454422655572429E+00 \
              -4.3509088566948222E+00    1.3920918448817428E+00   -1.1911382372759986E+01    2.6125000290766596E+00   -4.9969204083277061E+00 \
              -1.9194636975651826E+00    3.2699250164829738E+00    3.0296709680514539E-01   -3.9272523581866499E+00    4.1420983293168359E+00 \
              -3.0737708253043041E+00    1.8219712502366704E+01   -2.3987697860746993E+00   -1.6193311913175097E+00   -1.0285480525156265E+01 \
              -1.8707113531797170E+00   -1.0857138909570092E+00   -1.2745046815773481E+01   -9.6924388252604210E+00    5.8073100261354744E+00 \
               6.6465405007267053E+00    7.6654616653887571E+00    3.3011830902676449E+00   -1.0260147849992650E+01    5.7887349562833927E+00 \
              -2.1841244128778912E+00    1.0595504053079278E+01    2.0147260021499963E-01   -2.6644867960074716E+00    1.1502332058864446E+00 \
               2.1838393555274505E+00   -1.9292231568879936E-01   -1.3468227836364019E+01    3.6171901872861367E+00   -1.5980365977571056E+00 \
               1.3512538300089579E+01   -1.5601328779072464E+01    8.8037340829096049E+00    1.8853380644509621E-01    4.4496696474953561E+00 \
              -2.3295631391349287E+00   -5.2058750239471632E+00    3.4888612135194581E+00   -2.8262436625490372E+00    1.6367318816579888E+00 \
               5.6012680936439025E+00   -7.9248810132171581E+00   -1.7707544938849604E+00   -4.3632639199790617E+00    6.7853803447326086E+00 \
              -8.8669017516660649E+00   -5.0600316020676961E-01   -2.9664717742164628E+00   -1.3325227954481013E+01    3.5137504407769731E+00 \
              -2.2928260286004560E+00   -3.9390329615975461E+00    3.3963706458289051E+00   -5.3154557118728158E+00   -1.0164390075221840E+01 \
               2.6094655729560619E+00   -4.7691105428374142E-01   -1.1521961904699614E+01    2.2119360452395269E+00   -3.3473823677268268E+00 \
              -7.8928015393517290E+00    2.5365099665185320E+00   -3.5525082133420884E+00   -1.0406867779561319E+01    2.5245525414410590E+00 \
              -9.4500365242272579E+00    8.7953968774321591E+00    6.2839460219554875E+00   -6.0961022748456442E+00    1.3098589717329679E+01 \
              -8.6108183861670824E+00    1.5510557276950163E+00   -4.2297483040078010E+00   -3.9551143084391565E+00   -1.4260646570965061E+00 \
               1.0883170716010898E+01   -1.1346867752702394E+01    9.6256879931010140E+00   -2.9447167397569189E+00    4.4247192238287081E+00 \
              -1.1226051302564137E+00    7.0110687783553711E+00   -2.3376223522134345E+00   -2.4930397987823092E+00    1.7842552074494147E+00 \
               5.6467352548280356E+00   -1.1813880739462921E+00   -8.5237907295717330E-01   -2.9546189485012953E+00    1.9557257858169436E-01 \
               1.5046464101628761E+01   -6.4639481907525669E+00    3.3662063495181410E-01   -4.9868751283838755E+00    1.6300544704651876E+00 \
              -3.9895030817278210E+00    5.1619036768503799E+00    4.0984386043366117E+00   -2.9107483006466578E-01    8.1005175959055915E+00 \
              -8.6236749085583710E+00    6.7614235621483569E+00   -5.2517443977280776E+00    4.4464233108930413E+00   -7.1578295587193201E+00 \
               2.2028743005623316E+01   -1.2919682606850027E+00    5.6652359232986402E+00   -4.0819202557617649E+00   -1.2545061620865368E+01 \
               1.1191604284155012E+01    7.7431239389437279E+00   -5.2216143597687328E+00    9.7542066230251676E-02   -1.2350572263664619E+01 \
               7.0522004198492749E-01   -2.3678174945949046E+00    1.1215302819683165E+01   -1.3589010179116183E+01    1.0636306381896537E+01 \
               2.8980371708113029E+00    1.2163106737730658E+00   -3.8388668666362533E+00   -3.5580038214155119E+00    6.1713272456787189E+00 \
              -4.6536473416915971E+00   -1.8340469338144590E+01   -3.3525109111995914E+00    4.3562319214633805E+00   -1.6661866581786486E-01 \
              -4.8837540595611069E+00    6.4978955539633798E+00   -1.9979276550993912E+00   -3.2094636387872137E+00    2.6805777883068460E-01 \
              -2.8874434446404189E+00   -5.5904534956330636E+00    3.7149978922077813E+00   -8.6480821459313209E+00    1.8483763575663505E+00 \
               1.9085216162295257E-01    1.4554690424336806E+01   -6.1808526121467100E+00    6.1748623213986278E+00   -6.4110332048368806E+00 \
              -9.0229431448739561E+00    3.4797806303024927E+00    1.5026305744189461E+01    3.6442331150012958E-01    2.6237930851115703E+00 \
              -4.0160720756443240E+00    2.0570120422021665E+00   -2.4650495131771994E+00   -1.0468312273376288E+01   -3.8167541026794374E+00 \
               3.6153529294514217E+00   -9.2333656017324834E+00   -4.8472398141347277E+00   -3.2133698981160075E+00    8.8013229040459269E+00 \
              -6.9662714402096340E+00    1.0445589679063159E+00   -9.1416353345309247E+00    7.5463329636071137E+00   -4.7078847958357777E+00 \
               8.1943330344982535E-01    2.0478426677487414E+00   -1.9700090600054394E+00    1.1362220009712448E+01   -4.7808302240957952E+00 \
              -1.9184010351494947E+00   -3.6749414457978880E+00   -1.1501406892618595E+00    5.4955547691023465E+00   -6.0655656290714672E+00 \
               7.0042858718758927E+00   -1.2326773019436519E+01   -6.3496806830446646E+00    2.4124119486040510E-01   -2.1691656801647023E+00 \
              -1.3291320426866557E+01    9.4096168440091681E+00   -6.8633978784100833E+00   -9.9911689775193189E+00    4.2756723095838796E+00 \
              -1.7275091509445106E+00    8.1903446780928899E+00   -1.6484190610859326E+00   -3.1646664858833771E+00   -1.8115698327857537E+01 \
              -1.7279581173078695E+00    2.1613163128993125E+00    1.0508498737954717E+01   -3.8964747176418211E+00    1.1068494457158884E+00 \
               1.5114707850302613E+01   -4.1705562237824334E-01   -3.4718811373714535E+00    4.5374430299600403E+00   -1.2085375569813235E+00 \
              -1.8729438624392047E+00    1.7466894109344107E+01   -2.4123923344589870E-01    5.3995215362652669E+00   -1.4707273990014940E+01 \
               4.5308219761027884E+00   -1.4858406340514516E+00   -1.4216170529146614E+01   -1.0131321723849340E+00   -3.0922730708725608E+00 \
               3.7060932767340722E+00   -4.5952043238139302E+00    6.6707906735221920E+00   -1.2255439948036761E+01    2.9321915502603696E-01 \
              -1.8118283787682283E+00   -5.5015185612880293E+00   -2.9306920439338526E+00   -6.6631027850457281E-01   -4.4380634124595435E+00 \
               2.4342883419355630E+00   -2.1971114566298957E+00   -1.2549363403167638E+01    1.0161404320790483E+01   -1.1561361076386243E+01 \
              -2.3534637868491842E-01   -3.8423678825108878E+00    3.8326226764629941E-02    2.0169984780628076E+00   -5.8753440730000657E+00 \
               6.3003541809531791E+00    3.4156951232313379E+00   -5.2493581133186973E-01    1.7339038766625821E+00   -1.0646549333134834E+01 \
               2.4894418531906246E+00    1.8023895648017865E+00   -3.7958557243609818E+00    4.9709581157692062E+00   -7.5062017190946255E+00 \
              -2.9115113578426768E+00    5.7074184805219303E+00    6.4931272950025398E-01    9.5494841766959109E+00   -4.4807503110925273E+00 \
              -3.9996951894424515E+00    4.3607529797655600E+00   -2.4637545895682638E+00   -3.8983123093578507E+00   -2.9280874502895191E+00 \
               5.5865006258094585E+00   -2.2778074798228611E+00   -4.0226612873700027E+00    7.4110233152812039E+00   -9.7118103569730607E+00 \
               1.1347941479930387E+01    3.5974353338629643E+00   -6.7068876612311206E+00   -3.0940379400988274E+00   -4.0297555223830148E+00 \
               5.9177124804178396E+00   -1.0369435618293842E+01   -1.8793860075793367E-01   -5.0614341376814831E-01   -4.9928334373113135E+00 \
               4.2931517805412591E+00   -6.2440049837385132E+00    1.5205852827005355E+01    1.4454256938923369E+00    4.2289431384306528E+00 \
              -5.5113257068696537E+00    9.2646708588238962E+00   -5.1750801882654658E+00   -7.4949037023203076E+00   -6.6312362086585708E+00 \
               7.4485304688224216E+00    3.5354160586058683E+00   -3.5085186875249637E+00    9.9199783359027960E-01    1.7603881069997637E+01 \
               7.3996645602846796E+00   -1.8027345985523513E+00   -1.3172148541148106E+01   -4.1299718308727913E+00    2.0985208615692961E+00 \
              -6.8601846095970398E+00   -4.9932195549367107E+00    2.8295872578638162E+00    5.2033638016003856E+00   -6.5650720450622559E+00 \
              -6.5443873962826124E-02   -1.4557134812588311E+01    2.8690538848039653E+00   -1.7942221510657288E+00   -1.1731648652234325E+01 \
              -4.5702085079685331E+00    6.3875124175429185E+00    2.7631861113883570E+01   -5.8590440241856960E+00   -2.7921574862897036E-01 \
              -9.1069805508387329E+00    3.9085714938340201E+00    3.8182837650004702E+00    1.0924222126947090E+01   -1.7962248797341258E+00 \
              -3.1614494679309091E-01    1.3362524499444106E+01   -3.8540976324565914E+00    4.8665540153861215E+00   -9.8512039766865733E+00 \
               2.5560684088185366E+00   -3.3202008669995084E+00   -1.2871884779013593E+01    3.8252685695914779E+00   -1.6458755329185912E+00 \
               1.8097966045666389E+00    1.5530888216196099E+00   -1.1614875315438653E+00   -1.4206568969080827E-01    8.1632502545231844E+00 \
              -2.4940520824389272E+00   -1.0162674797137935E+01    2.9658748653724341E+00   -3.0857207299754852E+00   -2.2439009536757002E+00 \
               9.3959202067291177E+00   -4.4510554472534940E+00    2.3347367420884995E+00    4.5356164475192511E+00   -1.4966910470596477E+00 \
               9.3816810041987821E+00   -2.1687789944710243E+00    2.9651533009061248E+00   -7.8061556967742831E+00    2.9266125613265022E+00 \
              -1.0718537152494642E+01    7.8783509004119106E+00    1.4317106440600198E+00    5.0130573960780944E-01   -1.5989111827503949E+01 \
              -7.5470740580696472E-01   -3.5409970406773250E+00    1.5304297172701080E+01    9.1818755104316381E+00   -7.3130217071996677E+00 \
               2.7413120999972951E+00    1.3834695231513770E+01   -1.0459428759051578E+01    1.1969938807650601E+01   -6.1490527552763918E+00 \
               5.4506482810165764E+00   -3.5948814168251935E+00    1.1578495098289294E+00   -2.2228843528369646E+00   -1.0679274763294073E+01 \
               2.1041420795924606E+00    2.3611823700923869E+00    4.6270671275652466E+00    3.3270995256443991E+00   -4.8062527122822329E+00 \
               9.7980249768896730E+00    4.1818394433595101E+00   -4.2866360848046376E+00    1.2565278719984009E+01   -3.3594362949046657E+00 \
               3.3240118697783405E+00   -1.3400755998157217E+00   -4.6807239254187936E+00   -3.1413257639981507E+00   -4.9727103725678701E+00 \
               7.9630411094302511E+00   -5.4664383329453523E+00   -1.2305588449245844E+01    4.8137562453932548E+00   -5.1753662435036221E+00 \
              -9.1765013521491634E-01    5.9254418661615436E+00   -7.3431404829998836E+00    1.8866749609966449E+00   -1.4637637779463302E+00 \
               6.5517480225879554E-01    6.6376084452179045E+00    3.6805925240469439E+00   -3.1724545979816039E+00   -6.4479299156175349E+00 \
              -7.1796619240723436E-01   -4.7811349369849552E+00   -5.1686603371823603E+00    2.5996735016475454E+00   -1.1057409320350955E+00 \
              -1.8838825507667853E+00   -9.5863617309974392E-01    1.3020899078964907E+00   -1.0524218873534397E+00    5.3510553292004612E+00 \
              -6.0253071415027266E+00   -4.6976289441855990E+00    1.5432351638377264E+00    1.3362136954619124E+00    3.6218177425045348E+00 \
              -4.2421670640159403E+00    3.0521763608851415E+00    4.4806302281920889E+00   -3.5681413761644212E+00   -3.2199302507045848E+00 \
              -6.0855856279474443E+00    2.6973346109650480E+00   -1.8974532408053928E+00   -3.2355878678880501E+00    3.9045268106756219E+00 \
              -5.2972968951250525E+00   -1.2068207071158144E+01    3.7016095642593894E+00   -2.0406897981264072E+00    6.5966741810130287E+00 \
               2.8873500643675705E+00   -1.9165352537161400E+00    1.1677719050298426E+01   -8.7481140659338568E+00    9.1914612327423859E-02 \
               2.7443455107065884E-01    1.7716475783136727E+00   -4.7879868616796557E+00   -9.8203995387575791E+00   -4.5765910871296649E+00 \
               2.1890281642072240E-01   -1.3869682563368462E+00   -1.7321355764072052E+01    9.2243018245228185E+00    6.8215160455485151E+00 \
              -5.2761817620312863E+00    7.5342157822250950E+00    5.1182654942450601E+00   -3.3040295198352734E+00    2.3968999912362370E+00 \
               1.1963970833524604E+01    8.0642694194046671E-01   -2.6814710689824590E+00   -1.8032182664985346E+00    1.2128260991892073E+00 \
               2.0895605864671078E+00    1.1998195777637752E+00   -3.0202283519812068E+00   -3.7769673054762607E+00    4.9518840647448528E+00 \
               8.8876149816783272E+00   -1.1614417659595363E+01    2.5216307867775720E+00   -8.1118899388085826E+00    9.2616424249282296E+00 \
              -6.6362472210301773E+00   -1.8244386365858944E+00    8.3491067259933125E+00   -8.2854791697309587E+00   -2.1834426892490715E+00 \
              -5.8607290278264945E-01   -1.4078135884325629E+01   -8.5332215515105192E-01    5.7760039235782239E+00    2.1386020197445882E-01 \
              -3.6079300036579687E+00    7.0772304822416041E+00   -4.2760271281306821E+00   -2.2482966319568948E-02   -3.2140313998708461E+00 \
              -3.3848369781043233E+00   -2.9116384753624758E-01   -2.0039836727033515E+00    2.2024887676497498E+00    2.6517803211945541E+00 \
              -3.9023212579986821E+00   -2.0009705595846867E+01    3.5111134993112594E+00   -6.0444687250385987E-01    6.6944872717598720E+00 \
               5.5233965877251967E-01    1.3999438755771152E+00   -5.5867809919136588E+00    6.4590260434280138E+00   -2.0777252841979061E+00 \
              -7.2701736670017132E+00    1.3108973323698008E+00   -1.7398475968904875E-01   -5.2935315946167529E+00    5.0371397510209741E+00 \
              -3.5142693049496350E+00   -1.0122018807085857E+01    5.0605221166801888E+00   -7.9298060693164241E-01   -7.9062999317597402E+00 \
               9.1031278132406239E+00   -9.8411675733957811E+00   -2.9480532833848092E+00    1.2952141595435878E+01   -1.0518660507655264E+01 \
              -2.8625240207379501E+00    5.4675496886656481E+00   -6.7255998962732519E+00    3.8339795443134633E-01    3.2141742508755815E+00 \
              -9.3856348132474521E-01    2.2274759933441413E+00    8.5295992191052914E+00   -6.8379812756613250E+00   -9.8133445853755692E+00 \
              -2.7527032387033428E+00   -1.6182982241862205E+00   -1.3248218987700596E+01    1.4976789696463426E+00    7.9463656504679470E-01 \
              -3.1780764271174426E+00    4.8231948645318061E+00   -2.7451568171433971E+00   -1.2864432226459254E+01    6.8221260575996610E+00 \
              -1.0045702718599629E+00   -2.3727384856877132E+00   -2.8803328574741643E-01   -3.4462707225391931E+00   -7.2718286173905833E+00 \
               7.1976326806616830E+00   -2.7404641909447220E+00   -1.6163553778110069E+00   -2.4660914061358210E+00    3.1334641609088973E+00 \
               7.0284354933444604E+00    5.4834813966479237E+00   -6.4878061115141508E+00    6.6435696012747316E+00   -7.3752664390895806E+00 \