 Entering Gaussian System, Link 0=g16
 Initial command:
 /home/apps/g16/l1.exe "./Gau-191115.inp" -scrdir="./"
 Entering Link 1 = /home/apps/g16/l1.exe PID=    191116.
  
 Copyright (c) 1988-2017, Gaussian, Inc.  All Rights Reserved.
  
 This is part of the Gaussian(R) 16 program.  It is based on
 the Gaussian(R) 09 system (copyright 2009, Gaussian, Inc.),
 the Gaussian(R) 03 system (copyright 2003, Gaussian, Inc.),
 the Gaussian(R) 98 system (copyright 1998, Gaussian, Inc.),
 the Gaussian(R) 94 system (copyright 1995, Gaussian, Inc.),
 the Gaussian 92(TM) system (copyright 1992, Gaussian, Inc.),
 the Gaussian 90(TM) system (copyright 1990, Gaussian, Inc.),
 the Gaussian 88(TM) system (copyright 1988, Gaussian, Inc.),
 the Gaussian 86(TM) system (copyright 1986, Carnegie Mellon
 University), and the Gaussian 82(TM) system (copyright 1983,
 Carnegie Mellon University). Gaussian is a federally registered
 trademark of Gaussian, Inc.
  
 This software contains proprietary and confidential information,
 including trade secrets, belonging to Gaussian, Inc.
  
 This software is provided under written license and may be
 used, copied, transmitted, or stored only in accord with that
 written license.
  
 The following legend is applicable only to US Government
 contracts under FAR:
  
                    RESTRICTED RIGHTS LEGEND
  
 Use, reproduction and disclosure by the US Government is
 subject to restrictions as set forth in subparagraphs (a)
 and (c) of the Commercial Computer Software - Restricted
 Rights clause in FAR 52.227-19.
  
 Gaussian, Inc.
 340 Quinnipiac St., Bldg. 40, Wallingford CT 06492
  
  
 ---------------------------------------------------------------
 Warning -- This program may not be used in any manner that
 competes with the business of Gaussian, Inc. or will provide
 assistance to any competitor of Gaussian, Inc.  The licensee
 of this program is prohibited from giving any competitor of
 Gaussian, Inc. access to this program.  By using this program,
 the user acknowledges that Gaussian, Inc. is engaged in the
 business of creating and licensing software in the field of
 computational chemistry and represents and warrants to the
 licensee that it is not a competitor of Gaussian, Inc. and that
 it will not use this program in any manner prohibited above.
 ---------------------------------------------------------------
  

 Cite this work as:
 Gaussian 16, Revision B.01,
 M. J. Frisch, G. W. Trucks, H. B. Schlegel, G. E. Scuseria, 
 M. A. Robb, J. R. Cheeseman, G. Scalmani, V. Barone, 
 G. A. Petersson, H. Nakatsuji, X. Li, M. Caricato, A. V. Marenich, 
 J. Bloino, B. G. Janesko, R. Gomperts, B. Mennucci, H. P. Hratchian, 
 J. V. Ortiz, A. F. Izmaylov, J. L. Sonnenberg, D. Williams-Young, 
 F. Ding, F. Lipparini, F. Egidi, J. Goings, B. Peng, A. Petrone, 
 T. Henderson, D. Ranasinghe, V. G. Zakrzewski, J. Gao, N. Rega, 
 G. Zheng, W. Liang, M. Hada, M. Ehara, K. Toyota, R. Fukuda, 
 J. Hasegawa, M. Ishida, T. Nakajima, Y. Honda, O. Kitao, H. Nakai, 
 T. Vreven, K. Throssell, J. A. Montgomery, Jr., J. E. Peralta, 
 F. Ogliaro, M. J. Bearpark, J. J. Heyd, E. N. Brothers, K. N. Kudin, 
 V. N. Staroverov, T. A. Keith, R. Kobayashi, J. Normand, 
 K. Raghavachari, A. P. Rendell, J. C. Burant, S. S. Iyengar, 
 J. Tomasi, M. Cossi, J. M. Millam, M. Klene, C. Adamo, R. Cammi, 
 J. W. Ochterski, R. L. Martin, K. Morokuma, O. Farkas, 
 J. B. Foresman, and D. J. Fox, Gaussian, Inc., Wallingford CT, 2016.
 
 ******************************************
 Gaussian 16:  EM64L-G16RevB.01 20-Dec-2017
                17-Dec-2020 
 ******************************************
 %nprocshared=32
 Will use up to   32 processors via shared memory.
 %mem=2000MW
 %chk=pf5scn.chk
 ----------------------------------------------------------------------
 # opt=(modredundant,maxcycle=1600) b3lyp/6-311++g(d,p) scrf=(cpcm,solv
 ent=water) nosymm scf=maxcycle=800
 ----------------------------------------------------------------------
 1/6=1600,18=120,19=15,26=3,38=1/1,3;
 2/9=110,12=2,15=1,17=6,18=5,40=1/2;
 3/5=4,6=6,7=1111,11=2,25=1,30=1,70=2101,71=1,72=1,74=-5/1,2,3;
 4//1;
 5/5=2,7=800,38=5,53=1/2;
 6/7=2,8=2,9=2,10=2,28=1/1;
 7/30=1/1,2,3,16;
 1/6=1600,18=20,19=15,26=3/3(2);
 2/9=110,15=1/2;
 99//99;
 2/9=110,15=1/2;
 3/5=4,6=6,7=1111,11=2,25=1,30=1,70=2105,71=1,72=1,74=-5/1,2,3;
 4/5=5,16=3,69=1/1;
 5/5=2,7=800,38=5,53=1/2;
 7/30=1/1,2,3,16;
 1/6=1600,18=20,19=15,26=3/3(-5);
 2/9=110,15=1/2;
 6/7=2,8=2,9=2,10=2,19=2,28=1/1;
 99/9=1/99;
 ------
 pf5scn
 ------
 Symbolic Z-matrix:
 Charge =  0 Multiplicity = 1
 P                    -0.86643  -0.0722    0. 
 F                    -0.86772  -0.07216   1.60949 
 F                     0.70187  -0.0722    0.00011 
 F                    -1.64744  -1.43219  -0.00002 
 F                    -1.64744   1.28779   0. 
 F                    -0.86784  -0.07219  -1.60949 
 
 The following ModRedundant input section has been read:
 A       3       1       4 S  20 3.0000                                        
 

 GradGradGradGradGradGradGradGradGradGradGradGradGradGradGradGradGradGrad
 Berny optimization.
 Initialization pass.
                           ----------------------------
                           !    Initial Parameters    !
                           ! (Angstroms and Degrees)  !
 --------------------------                            --------------------------
 ! Name  Definition              Value          Derivative Info.                !
 --------------------------------------------------------------------------------
 ! R1    R(1,2)                  1.6095         estimate D2E/DX2                !
 ! R2    R(1,3)                  1.5683         estimate D2E/DX2                !
 ! R3    R(1,4)                  1.5683         estimate D2E/DX2                !
 ! R4    R(1,5)                  1.5683         estimate D2E/DX2                !
 ! R5    R(1,6)                  1.6095         estimate D2E/DX2                !
 ! A1    A(2,1,3)               90.0422         estimate D2E/DX2                !
 ! A2    A(2,1,4)               89.9791         estimate D2E/DX2                !
 ! A3    A(2,1,5)               89.9756         estimate D2E/DX2                !
 ! A4    A(3,1,4)              119.8681         Scan                            !
 ! A5    A(3,1,5)              119.8678         estimate D2E/DX2                !
 ! A6    A(3,1,6)               90.0545         estimate D2E/DX2                !
 ! A7    A(4,1,5)              120.2641         estimate D2E/DX2                !
 ! A8    A(4,1,6)               89.9745         estimate D2E/DX2                !
 ! A9    A(5,1,6)               89.9745         estimate D2E/DX2                !
 ! A10   L(2,1,6,3,-1)         180.0967         estimate D2E/DX2                !
 ! A11   L(2,1,6,3,-2)         180.002          estimate D2E/DX2                !
 ! D1    D(2,1,4,3)            -90.0366         estimate D2E/DX2                !
 ! D2    D(2,1,5,3)             90.0346         estimate D2E/DX2                !
 ! D3    D(2,1,5,4)            -89.9616         estimate D2E/DX2                !
 ! D4    D(3,1,5,4)           -179.9962         estimate D2E/DX2                !
 ! D5    D(3,1,6,4)            119.8681         estimate D2E/DX2                !
 ! D6    D(3,1,6,5)           -119.8678         estimate D2E/DX2                !
 ! D7    D(4,1,6,5)            120.2641         estimate D2E/DX2                !
 --------------------------------------------------------------------------------
 Trust Radius=3.00D-01 FncErr=1.00D-07 GrdErr=1.00D-06 EigMax=2.50D+02 EigMin=1.00D-04
 Number of optimizations in scan=  21
 Number of steps in this run=    100 maximum allowed number of steps=    100.
 GradGradGradGradGradGradGradGradGradGradGradGradGradGradGradGradGradGrad

                          Input orientation:                          
 ---------------------------------------------------------------------
 Center     Atomic      Atomic             Coordinates (Angstroms)
 Number     Number       Type             X           Y           Z
 ---------------------------------------------------------------------
      1         15           0       -0.866426   -0.072202    0.000000
      2          9           0       -0.867724   -0.072162    1.609489
      3          9           0        0.701870   -0.072199    0.000111
      4          9           0       -1.647445   -1.432192   -0.000024
      5          9           0       -1.647440    1.287787    0.000003
      6          9           0       -0.867843   -0.072185   -1.609494
 ---------------------------------------------------------------------
                    Distance matrix (angstroms):
                    1          2          3          4          5
     1  P    0.000000
     2  F    1.609490   0.000000
     3  F    1.568296   2.248049   0.000000
     4  F    1.568300   2.246815   2.714565   0.000000
     5  F    1.568296   2.246745   2.714557   2.719979   0.000000
     6  F    1.609495   3.218983   2.248294   2.246729   2.246726
                    6
     6  F    0.000000
 Symmetry turned off by external request.
 Stoichiometry    F5P
 Framework group  C1[X(F5P)]
 Deg. of freedom    12
 Full point group                 C1      NOp   1
 Rotational constants (GHZ):           3.6051387           3.0022313           2.9955996
 Standard basis: 6-311++G(d,p) (5D, 7F)
   140 basis functions,   230 primitive gaussians,   146 cartesian basis functions
    30 alpha electrons       30 beta electrons
       nuclear repulsion energy       400.5259213208 Hartrees.
 NAtoms=    6 NActive=    6 NUniq=    6 SFac= 1.00D+00 NAtFMM=   60 NAOKFM=F Big=F
 Integral buffers will be    131072 words long.
 Raffenetti 2 integral format.
 Two-electron integral symmetry is turned off.
 ------------------------------------------------------------------------------
 Polarizable Continuum Model (PCM)
 =================================
 Model                : C-PCM.
 Atomic radii         : UFF (Universal Force Field).
 Polarization charges : Total charges.
 Charge compensation  : None.
 Solution method      : On-the-fly selection.
 Cavity type          : Scaled VdW (van der Waals Surface) (Alpha=1.100).
 Cavity algorithm     : GePol (No added spheres)
                        Default sphere list used, NSphG=    6.
                        Lebedev-Laikov grids with approx.  5.0 points / Ang**2.
                        Smoothing algorithm: York/Karplus (Gamma=1.0000).
                        Polarization charges: spherical gaussians, with
                                              point-specific exponents (IZeta= 3).
                        Self-potential: point-specific (ISelfS= 7).
                        Self-field    : sphere-specific E.n sum rule (ISelfD= 2).
 1st derivatives      : Analytical E(r).r(x)/FMM algorithm (CHGder, D1EAlg=3).
                        Cavity 1st derivative terms included.
 Solvent              : Water, Eps=  78.355300 Eps(inf)=   1.777849
 ------------------------------------------------------------------------------
 Spheres list:
 ISph  on   Nord     Re0    Alpha      Xe            Ye            Ze
    1   P      1    2.0735  1.100     -0.866426     -0.072202      0.000000
    2   F      2    1.6820  1.100     -0.867724     -0.072162      1.609489
    3   F      3    1.6820  1.100      0.701870     -0.072199      0.000111
    4   F      4    1.6820  1.100     -1.647445     -1.432192     -0.000024
    5   F      5    1.6820  1.100     -1.647440      1.287787      0.000003
    6   F      6    1.6820  1.100     -0.867843     -0.072185     -1.609494
 ------------------------------------------------------------------------------
 One-electron integrals computed using PRISM.
 NBasis=   140 RedAO= T EigKep=  1.05D-03  NBF=   140
 NBsUse=   140 1.00D-06 EigRej= -1.00D+00 NBFU=   140
 ExpMin= 3.48D-02 ExpMax= 7.75D+04 ExpMxC= 2.65D+03 IAcc=3 IRadAn=         5 AccDes= 0.00D+00
 Harris functional with IExCor=  402 and IRadAn=       5 diagonalized for initial guess.
 HarFok:  IExCor=  402 AccDes= 0.00D+00 IRadAn=         5 IDoV= 1 UseB2=F ITyADJ=14
 ICtDFT=  3500011 ScaDFX=  1.000000  1.000000  1.000000  1.000000
 FoFCou: FMM=F IPFlag=           0 FMFlag=      100000 FMFlg1=           0
         NFxFlg=           0 DoJE=T BraDBF=F KetDBF=T FulRan=T
         wScrn=  0.000000 ICntrl=       500 IOpCl=  0 I1Cent=   200000004 NGrid=           0
         NMat0=    1 NMatS0=      1 NMatT0=    0 NMatD0=    1 NMtDS0=    0 NMtDT0=    0
 Symmetry not used in FoFCou.
 Keep R1 ints in memory in canonical form, NReq=79822883.
 Requested convergence on RMS density matrix=1.00D-08 within 800 cycles.
 Requested convergence on MAX density matrix=1.00D-06.
 Requested convergence on             energy=1.00D-06.
 No special actions if energy rises.
 Inv3:  Mode=1 IEnd=     2561328.
 Iteration    1 A*A^-1 deviation from unit magnitude is 5.77D-15 for    335.
 Iteration    1 A*A^-1 deviation from orthogonality  is 3.48D-15 for    782    273.
 Iteration    1 A^-1*A deviation from unit magnitude is 5.33D-15 for    335.
 Iteration    1 A^-1*A deviation from orthogonality  is 3.47D-15 for    754    596.
 Error on total polarization charges =  0.00425
 SCF Done:  E(RB3LYP) =  -840.865585532     A.U. after   10 cycles
            NFock= 10  Conv=0.18D-08     -V/T= 2.0021

 **********************************************************************

            Population analysis using the SCF Density.

 **********************************************************************

 Alpha  occ. eigenvalues --  -77.36051 -24.75880 -24.75880 -24.75875 -24.71849
 Alpha  occ. eigenvalues --  -24.71848  -6.82794  -4.99164  -4.99162  -4.98930
 Alpha  occ. eigenvalues --   -1.34953  -1.28921  -1.28904  -1.25397  -1.22441
 Alpha  occ. eigenvalues --   -0.73561  -0.62923  -0.62910  -0.61796  -0.55203
 Alpha  occ. eigenvalues --   -0.55175  -0.53316  -0.53307  -0.51463  -0.49316
 Alpha  occ. eigenvalues --   -0.47668  -0.46159  -0.46158  -0.43967  -0.43944
 Alpha virt. eigenvalues --   -0.04648   0.02876   0.02904   0.03222   0.04737
 Alpha virt. eigenvalues --    0.06920   0.07039   0.17451   0.18066   0.19087
 Alpha virt. eigenvalues --    0.19095   0.20808   0.20818   0.22398   0.23719
 Alpha virt. eigenvalues --    0.24688   0.24692   0.28414   0.28417   0.28692
 Alpha virt. eigenvalues --    0.28802   0.28989   0.32176   0.32236   0.38567
 Alpha virt. eigenvalues --    0.38569   0.40907   0.43099   0.51723   0.51772
 Alpha virt. eigenvalues --    0.54746   0.54747   0.57130   0.77835   0.79696
 Alpha virt. eigenvalues --    0.79887   0.98165   1.18844   1.18879   1.22488
 Alpha virt. eigenvalues --    1.23489   1.23493   1.26918   1.27646   1.32443
 Alpha virt. eigenvalues --    1.32497   1.36030   1.36100   1.42006   1.42113
 Alpha virt. eigenvalues --    1.42512   1.50409   1.63472   1.63583   1.70660
 Alpha virt. eigenvalues --    1.92368   1.98486   2.02505   2.02748   2.12149
 Alpha virt. eigenvalues --    3.65608   3.67678   3.67693   3.69432   3.70056
 Alpha virt. eigenvalues --    3.70060   3.70228   3.70236   3.70487   3.70513
 Alpha virt. eigenvalues --    3.73693   3.73790   3.73791   3.76649   3.76657
 Alpha virt. eigenvalues --    3.79646   3.85036   3.85256   3.85287   3.87293
 Alpha virt. eigenvalues --    3.87376   4.10335   4.21680   4.21738   4.29129
 Alpha virt. eigenvalues --    6.13379   6.13380   6.18017   6.21861   6.22029
 Alpha virt. eigenvalues --    6.22065   6.22091   6.25334   6.25419   6.34537
 Alpha virt. eigenvalues --    6.34599   6.35367   6.35421   6.40590   6.45503
 Alpha virt. eigenvalues --    7.20144  13.76977  13.77135  13.90659  66.69859
 Alpha virt. eigenvalues --   66.73260  66.73333  66.75564  66.79842 163.14421
          Condensed to atoms (all electrons):
               1          2          3          4          5          6
     1  P   12.972880   0.192875   0.208379   0.208405   0.208402   0.192893
     2  F    0.192875   9.095232  -0.021075  -0.021154  -0.021159   0.008194
     3  F    0.208379  -0.021075   9.028746  -0.005278  -0.005277  -0.021054
     4  F    0.208405  -0.021154  -0.005278   9.027657  -0.005515  -0.021163
     5  F    0.208402  -0.021159  -0.005277  -0.005515   9.027673  -0.021162
     6  F    0.192893   0.008194  -0.021054  -0.021163  -0.021162   9.095189
 Mulliken charges:
               1
     1  P    1.016166
     2  F   -0.232913
     3  F   -0.184441
     4  F   -0.182953
     5  F   -0.182962
     6  F   -0.232897
 Sum of Mulliken charges =  -0.00000
 Mulliken charges with hydrogens summed into heavy atoms:
               1
     1  P    1.016166
     2  F   -0.232913
     3  F   -0.184441
     4  F   -0.182953
     5  F   -0.182962
     6  F   -0.232897
 Electronic spatial extent (au):  <R**2>=            653.0085
 Charge=             -0.0000 electrons
 Dipole moment (field-independent basis, Debye):
    X=             -0.0051    Y=             -0.0001    Z=             -0.0002  Tot=              0.0051
 Quadrupole moment (field-independent basis, Debye-Ang):
   XX=            -37.6996   YY=            -37.7341   ZZ=            -42.3678
   XY=              0.0005   XZ=             -0.0002   YZ=             -0.0001
 Traceless Quadrupole moment (field-independent basis, Debye-Ang):
   XX=              1.5676   YY=              1.5330   ZZ=             -3.1006
   XY=              0.0005   XZ=             -0.0002   YZ=             -0.0001
 Octapole moment (field-independent basis, Debye-Ang**2):
  XXX=             94.6301  YYY=              8.1724  ZZZ=             -0.0018  XYY=             35.9800
  XXY=              2.7215  XXZ=             -0.0001  XZZ=             36.7035  YZZ=              3.0586
  YYZ=             -0.0005  XYZ=              0.0001
 Hexadecapole moment (field-independent basis, Debye-Ang**3):
 XXXX=           -298.0375 YYYY=           -141.6925 ZZZZ=           -204.2636 XXXY=             -6.8315
 XXXZ=             -0.0047 YYYX=             -7.7926 YYYZ=             -0.0010 ZZZX=             -0.0042
 ZZZY=             -0.0010 XXYY=            -80.9440 XXZZ=            -85.6499 YYZZ=            -54.1712
 XXYZ=             -0.0004 YYXZ=             -0.0015 ZZXY=             -2.6497
 N-N= 4.005259213208D+02 E-N=-2.802880996999D+03  KE= 8.390842488337D+02
 D1PCM: C-PCM CHGder 1st derivatives, ID1Alg=3 FixD1E=F DoIter=F DoCFld=F I1PDM=0.
 Calling FoFJK, ICntrl=      2127 FMM=F ISym2X=0 I1Cent= 0 IOpClX= 0 NMat=1 NMatS=1 NMatT=0.
 -------------------------------------------------------------------
 Center     Atomic                   Forces (Hartrees/Bohr)
 Number     Number              X              Y              Z
 -------------------------------------------------------------------
      1       15          -0.000089684    0.000004175    0.000005320
      2        9           0.000023768   -0.000007899   -0.000009006
      3        9          -0.000081875   -0.000001611   -0.000031354
      4        9           0.000046576   -0.000097222    0.000010213
      5        9           0.000041139    0.000103375    0.000001854
      6        9           0.000060076   -0.000000818    0.000022973
 -------------------------------------------------------------------
 Cartesian Forces:  Max     0.000103375 RMS     0.000049851

 GradGradGradGradGradGradGradGradGradGradGradGradGradGradGradGradGradGrad
 Berny optimization.
 FormGI is forming the generalized inverse of G from B-inverse, IUseBI=4.
 Internal  Forces:  Max     0.000086932 RMS     0.000047659
 Search for a local minimum.
 Step number   1 out of a maximum of  100 on scan point     1 out of    21
 All quantities printed in internal units (Hartrees-Bohrs-Radians)
 Mixed Optimization -- En-DIIS/RFO-DIIS
 Second derivative matrix not updated -- first step.
 ITU=  0
     Eigenvalues ---    0.08117   0.09733   0.11811   0.14011   0.18597
     Eigenvalues ---    0.22052   0.49425   0.49426   0.57871   0.57872
     Eigenvalues ---    0.578721000.000001000.000001000.000001000.00000
     Eigenvalues --- 1000.000001000.000001000.000001000.000001000.00000
     Eigenvalues --- 1000.000001000.000001000.00000
 RFO step:  Lambda=-2.39750321D-07 EMin= 8.11702559D-02
 Linear search not attempted -- first point.
 Iteration  1 RMS(Cart)=  0.00027957 RMS(Int)=  0.00000007
 Iteration  2 RMS(Cart)=  0.00000006 RMS(Int)=  0.00000004
 Iteration  1 RMS(Cart)=  0.00000000 RMS(Int)=  0.00000000
 Variable       Old X    -DE/DX   Delta X   Delta X   Delta X     New X
                                 (Linear)    (Quad)   (Total)
    R1        3.04149  -0.00001   0.00000  -0.00002  -0.00002   3.04148
    R2        2.96365  -0.00008   0.00000  -0.00014  -0.00014   2.96351
    R3        2.96366   0.00006   0.00000   0.00011   0.00011   2.96376
    R4        2.96365   0.00007   0.00000   0.00012   0.00012   2.96377
    R5        3.04150  -0.00002   0.00000  -0.00005  -0.00005   3.04146
    A1        1.57153   0.00000   0.00000  -0.00010  -0.00010   1.57143
    A2        1.57043  -0.00000   0.00000   0.00004   0.00004   1.57047
    A3        1.57037   0.00001   0.00000   0.00015   0.00015   1.57052
    A4        2.09209  -0.00004   0.00000   0.00000   0.00000   2.09209
    A5        2.09209  -0.00004   0.00000  -0.00046  -0.00046   2.09163
    A6        1.57175  -0.00008   0.00000  -0.00047  -0.00047   1.57128
    A7        2.09900   0.00009   0.00000   0.00046   0.00046   2.09947
    A8        1.57035   0.00004   0.00000   0.00019   0.00019   1.57054
    A9        1.57035   0.00003   0.00000   0.00019   0.00019   1.57054
   A10        3.14328  -0.00007   0.00000  -0.00057  -0.00057   3.14271
   A11        3.14163  -0.00001   0.00000  -0.00006  -0.00006   3.14156
    D1       -1.57144   0.00000   0.00000   0.00009   0.00009  -1.57135
    D2        1.57140   0.00001   0.00000  -0.00003  -0.00003   1.57137
    D3       -1.57013  -0.00000   0.00000  -0.00013  -0.00013  -1.57026
    D4       -3.14153  -0.00001   0.00000  -0.00010  -0.00010   3.14156
    D5        2.09209  -0.00004   0.00000   0.00000   0.00000   2.09209
    D6       -2.09209   0.00004   0.00000   0.00046   0.00046  -2.09163
    D7        2.09901   0.00009   0.00000   0.00046   0.00046   2.09947
         Item               Value     Threshold  Converged?
 Maximum Force            0.000082     0.000450     YES
 RMS     Force            0.000046     0.000300     YES
 Maximum Displacement     0.000621     0.001800     YES
 RMS     Displacement     0.000280     0.001200     YES
 Predicted change in Energy=-1.198834D-07
 Optimization completed.
    -- Stationary point found.
                           ----------------------------
                           !   Optimized Parameters   !
                           ! (Angstroms and Degrees)  !
 --------------------------                            --------------------------
 ! Name  Definition              Value          Derivative Info.                !
 --------------------------------------------------------------------------------
 ! R1    R(1,2)                  1.6095         -DE/DX =    0.0                 !
 ! R2    R(1,3)                  1.5683         -DE/DX =   -0.0001              !
 ! R3    R(1,4)                  1.5683         -DE/DX =    0.0001              !
 ! R4    R(1,5)                  1.5683         -DE/DX =    0.0001              !
 ! R5    R(1,6)                  1.6095         -DE/DX =    0.0                 !
 ! A1    A(2,1,3)               90.0422         -DE/DX =    0.0                 !
 ! A2    A(2,1,4)               89.9791         -DE/DX =    0.0                 !
 ! A3    A(2,1,5)               89.9756         -DE/DX =    0.0                 !
 ! A4    A(3,1,4)              119.8681         -DE/DX =    0.0                 !
 ! A5    A(3,1,5)              119.8678         -DE/DX =    0.0                 !
 ! A6    A(3,1,6)               90.0545         -DE/DX =   -0.0001              !
 ! A7    A(4,1,5)              120.2641         -DE/DX =    0.0001              !
 ! A8    A(4,1,6)               89.9745         -DE/DX =    0.0                 !
 ! A9    A(5,1,6)               89.9745         -DE/DX =    0.0                 !
 ! A10   L(2,1,6,3,-1)         180.0967         -DE/DX =   -0.0001              !
 ! A11   L(2,1,6,3,-2)         180.002          -DE/DX =    0.0                 !
 ! D1    D(2,1,4,3)            -90.0366         -DE/DX =    0.0                 !
 ! D2    D(2,1,5,3)             90.0346         -DE/DX =    0.0                 !
 ! D3    D(2,1,5,4)            -89.9616         -DE/DX =    0.0                 !
 ! D4    D(3,1,5,4)            180.0038         -DE/DX =    0.0                 !
 ! D5    D(3,1,6,4)            119.8681         -DE/DX =    0.0                 !
 ! D6    D(3,1,6,5)           -119.8678         -DE/DX =    0.0                 !
 ! D7    D(4,1,6,5)            120.2641         -DE/DX =    0.0001              !
 --------------------------------------------------------------------------------
 Iteration  1 RMS(Cart)=  0.00660686 RMS(Int)=  0.00891440
 Iteration  2 RMS(Cart)=  0.00003186 RMS(Int)=  0.00891434
 Iteration  3 RMS(Cart)=  0.00000000 RMS(Int)=  0.00891434
 Iteration  1 RMS(Cart)=  0.00439721 RMS(Int)=  0.00594291
 Iteration  2 RMS(Cart)=  0.00292829 RMS(Int)=  0.00657013
 Iteration  3 RMS(Cart)=  0.00195078 RMS(Int)=  0.00755774
 Iteration  4 RMS(Cart)=  0.00129989 RMS(Int)=  0.00838434
 Iteration  5 RMS(Cart)=  0.00086631 RMS(Int)=  0.00898915
 Iteration  6 RMS(Cart)=  0.00057742 RMS(Int)=  0.00941146
 Iteration  7 RMS(Cart)=  0.00038489 RMS(Int)=  0.00970033
 Iteration  8 RMS(Cart)=  0.00025657 RMS(Int)=  0.00989586
 Iteration  9 RMS(Cart)=  0.00017103 RMS(Int)=  0.01002745
 Iteration 10 RMS(Cart)=  0.00011402 RMS(Int)=  0.01011571
 Iteration 11 RMS(Cart)=  0.00007601 RMS(Int)=  0.01017477
 Iteration 12 RMS(Cart)=  0.00005067 RMS(Int)=  0.01021424
 Iteration 13 RMS(Cart)=  0.00003378 RMS(Int)=  0.01024060
 Iteration 14 RMS(Cart)=  0.00002252 RMS(Int)=  0.01025819
 Iteration 15 RMS(Cart)=  0.00001501 RMS(Int)=  0.01026993
 Iteration 16 RMS(Cart)=  0.00001001 RMS(Int)=  0.01027776
 Iteration 17 RMS(Cart)=  0.00000667 RMS(Int)=  0.01028298
 Iteration 18 RMS(Cart)=  0.00000445 RMS(Int)=  0.01028646
 Iteration 19 RMS(Cart)=  0.00000297 RMS(Int)=  0.01028878
 Iteration 20 RMS(Cart)=  0.00000198 RMS(Int)=  0.01029033
 Iteration 21 RMS(Cart)=  0.00000132 RMS(Int)=  0.01029136
 Iteration 22 RMS(Cart)=  0.00000088 RMS(Int)=  0.01029205
 GradGradGradGradGradGradGradGradGradGradGradGradGradGradGradGradGradGrad

                          Input orientation:                          
 ---------------------------------------------------------------------
 Center     Atomic      Atomic             Coordinates (Angstroms)
 Number     Number       Type             X           Y           Z
 ---------------------------------------------------------------------
      1         15           0       -0.860684   -0.082560    0.000022
      2          9           0       -0.861630   -0.082599    1.609501
      3          9           0        0.707041   -0.041254   -0.000058
      4          9           0       -1.676869   -1.421862    0.000037
      5          9           0       -1.641323    1.277717    0.000031
      6          9           0       -0.861542   -0.082595   -1.609448
 ---------------------------------------------------------------------
                    Distance matrix (angstroms):
                    1          2          3          4          5
     1  P    0.000000
     2  F    1.609480   0.000000
     3  F    1.568269   2.247914   0.000000
     4  F    1.568403   2.246912   2.754833   0.000000
     5  F    1.568359   2.246949   2.693418   2.699813   0.000000
     6  F    1.609470   3.218949   2.247732   2.246962   2.246982
                    6
     6  F    0.000000
 Symmetry turned off by external request.
 Stoichiometry    F5P
 Framework group  C1[X(F5P)]
 Deg. of freedom    12
 Full point group                 C1      NOp   1
 Rotational constants (GHZ):           3.6052801           3.0352184           2.9636307
 Standard basis: 6-311++G(d,p) (5D, 7F)
   140 basis functions,   230 primitive gaussians,   146 cartesian basis functions
    30 alpha electrons       30 beta electrons
       nuclear repulsion energy       400.5329777462 Hartrees.
 NAtoms=    6 NActive=    6 NUniq=    6 SFac= 1.00D+00 NAtFMM=   60 NAOKFM=F Big=F
 Integral buffers will be    131072 words long.
 Raffenetti 2 integral format.
 Two-electron integral symmetry is turned off.
 ------------------------------------------------------------------------------
 Polarizable Continuum Model (PCM)
 =================================
 Model                : C-PCM.
 Atomic radii         : UFF (Universal Force Field).
 Polarization charges : Total charges.
 Charge compensation  : None.
 Solution method      : On-the-fly selection.
 Cavity type          : Scaled VdW (van der Waals Surface) (Alpha=1.100).
 Cavity algorithm     : GePol (No added spheres)
                        Default sphere list used, NSphG=    6.
                        Lebedev-Laikov grids with approx.  5.0 points / Ang**2.
                        Smoothing algorithm: York/Karplus (Gamma=1.0000).
                        Polarization charges: spherical gaussians, with
                                              point-specific exponents (IZeta= 3).
                        Self-potential: point-specific (ISelfS= 7).
                        Self-field    : sphere-specific E.n sum rule (ISelfD= 2).
 1st derivatives      : Analytical E(r).r(x)/FMM algorithm (CHGder, D1EAlg=3).
                        Cavity 1st derivative terms included.
 Solvent              : Water, Eps=  78.355300 Eps(inf)=   1.777849
 ------------------------------------------------------------------------------
 Spheres list:
 ISph  on   Nord     Re0    Alpha      Xe            Ye            Ze
    1   P      1    2.0735  1.100     -0.860684     -0.082560      0.000022
    2   F      2    1.6820  1.100     -0.861630     -0.082599      1.609501
    3   F      3    1.6820  1.100      0.707041     -0.041254     -0.000058
    4   F      4    1.6820  1.100     -1.676869     -1.421862      0.000037
    5   F      5    1.6820  1.100     -1.641323      1.277717      0.000031
    6   F      6    1.6820  1.100     -0.861542     -0.082595     -1.609448
 ------------------------------------------------------------------------------
 One-electron integrals computed using PRISM.
 NBasis=   140 RedAO= T EigKep=  1.05D-03  NBF=   140
 NBsUse=   140 1.00D-06 EigRej= -1.00D+00 NBFU=   140
 Initial guess from the checkpoint file:  "pf5scn.chk"
 B after Tr=     0.001085   -0.001952    0.000004
         Rot=    1.000000    0.000000   -0.000000   -0.000002 Ang=   0.00 deg.
 ExpMin= 3.48D-02 ExpMax= 7.75D+04 ExpMxC= 2.65D+03 IAcc=3 IRadAn=         5 AccDes= 0.00D+00
 Harris functional with IExCor=  402 and IRadAn=       5 diagonalized for initial guess.
 HarFok:  IExCor=  402 AccDes= 0.00D+00 IRadAn=         5 IDoV= 1 UseB2=F ITyADJ=14
 ICtDFT=  3500011 ScaDFX=  1.000000  1.000000  1.000000  1.000000
 FoFCou: FMM=F IPFlag=           0 FMFlag=      100000 FMFlg1=           0
         NFxFlg=           0 DoJE=T BraDBF=F KetDBF=T FulRan=T
         wScrn=  0.000000 ICntrl=       500 IOpCl=  0 I1Cent=   200000004 NGrid=           0
         NMat0=    1 NMatS0=      1 NMatT0=    0 NMatD0=    1 NMtDS0=    0 NMtDT0=    0
 Symmetry not used in FoFCou.
 Keep R1 ints in memory in canonical form, NReq=79822883.
 Requested convergence on RMS density matrix=1.00D-08 within 800 cycles.
 Requested convergence on MAX density matrix=1.00D-06.
 Requested convergence on             energy=1.00D-06.
 No special actions if energy rises.
 Inv3:  Mode=1 IEnd=     2561328.
 Iteration    1 A*A^-1 deviation from unit magnitude is 4.88D-15 for    204.
 Iteration    1 A*A^-1 deviation from orthogonality  is 2.16D-15 for    904    217.
 Iteration    1 A^-1*A deviation from unit magnitude is 4.88D-15 for    835.
 Iteration    1 A^-1*A deviation from orthogonality  is 1.75D-15 for    668    111.
 Error on total polarization charges =  0.00423
 SCF Done:  E(RB3LYP) =  -840.865422166     A.U. after    9 cycles
            NFock=  9  Conv=0.22D-08     -V/T= 2.0021
 D1PCM: C-PCM CHGder 1st derivatives, ID1Alg=3 FixD1E=F DoIter=F DoCFld=F I1PDM=0.
 Calling FoFJK, ICntrl=      2127 FMM=F ISym2X=0 I1Cent= 0 IOpClX= 0 NMat=1 NMatS=1 NMatT=0.
 -------------------------------------------------------------------
 Center     Atomic                   Forces (Hartrees/Bohr)
 Number     Number              X              Y              Z
 -------------------------------------------------------------------
      1       15          -0.003180774    0.005508788   -0.000000794
      2        9           0.000895078   -0.001573407   -0.000033098
      3        9          -0.000162582   -0.002037141    0.000023019
      4        9           0.001865242   -0.000855865   -0.000005957
      5        9          -0.000284738    0.000533130   -0.000004053
      6        9           0.000867773   -0.001575505    0.000020882
 -------------------------------------------------------------------
 Cartesian Forces:  Max     0.005508788 RMS     0.001759601

 GradGradGradGradGradGradGradGradGradGradGradGradGradGradGradGradGradGrad
 Berny optimization.
 FormGI is forming the generalized inverse of G from B-inverse, IUseBI=4.
 Internal  Forces:  Max     0.002640883 RMS     0.001118312
 Search for a local minimum.
 Step number   1 out of a maximum of  100 on scan point     2 out of    21
 All quantities printed in internal units (Hartrees-Bohrs-Radians)
 Mixed Optimization -- RFO/linear search
 Second derivative matrix not updated -- first step.
 ITU=  0
     Eigenvalues ---    0.08170   0.09904   0.11692   0.14011   0.18748
     Eigenvalues ---    0.21963   0.49425   0.49426   0.57871   0.57872
     Eigenvalues ---    0.578721000.000001000.000001000.000001000.00000
     Eigenvalues --- 1000.000001000.000001000.000001000.000001000.00000
     Eigenvalues --- 1000.000001000.000001000.00000
 RFO step:  Lambda=-1.38413129D-04 EMin= 8.16957263D-02
 Linear search not attempted -- first point.
 Iteration  1 RMS(Cart)=  0.00927584 RMS(Int)=  0.00007321
 Iteration  2 RMS(Cart)=  0.00007201 RMS(Int)=  0.00001388
 Iteration  3 RMS(Cart)=  0.00000000 RMS(Int)=  0.00001388
 Iteration  1 RMS(Cart)=  0.00000542 RMS(Int)=  0.00000736
 Iteration  2 RMS(Cart)=  0.00000361 RMS(Int)=  0.00000814
 Iteration  3 RMS(Cart)=  0.00000241 RMS(Int)=  0.00000936
 Iteration  4 RMS(Cart)=  0.00000161 RMS(Int)=  0.00001038
 Iteration  5 RMS(Cart)=  0.00000107 RMS(Int)=  0.00001113
 Iteration  6 RMS(Cart)=  0.00000071 RMS(Int)=  0.00001166
 Variable       Old X    -DE/DX   Delta X   Delta X   Delta X     New X
                                 (Linear)    (Quad)   (Total)
    R1        3.04148  -0.00003   0.00000  -0.00007  -0.00007   3.04141
    R2        2.96360  -0.00022   0.00000  -0.00037  -0.00037   2.96323
    R3        2.96385  -0.00024   0.00000  -0.00041  -0.00041   2.96344
    R4        2.96377   0.00060   0.00000   0.00104   0.00104   2.96481
    R5        3.04146  -0.00002   0.00000  -0.00004  -0.00004   3.04141
    A1        1.57144  -0.00042   0.00000  -0.00516  -0.00516   1.56628
    A2        1.57046  -0.00060   0.00000  -0.00587  -0.00587   1.56459
    A3        1.57052   0.00129   0.00000   0.01244   0.01244   1.58296
    A4        2.14445  -0.00201   0.00000   0.00000   0.00000   2.14445
    A5        2.06545   0.00099   0.00000  -0.00007  -0.00008   2.06537
    A6        1.57128  -0.00090   0.00000  -0.00628  -0.00628   1.56500
    A7        2.07329   0.00102   0.00000   0.00007   0.00007   2.07336
    A8        1.57051  -0.00090   0.00000  -0.00667  -0.00667   1.56384
    A9        1.57056   0.00166   0.00000   0.01263   0.01263   1.58318
   A10        3.14271  -0.00132   0.00000  -0.01144  -0.01144   3.13128
   A11        3.14158  -0.00264   0.00000  -0.02232  -0.02232   3.11926
    D1       -1.57134   0.00089   0.00000   0.00993   0.00993  -1.56141
    D2        1.57137   0.00022   0.00000   0.00085   0.00085   1.57222
    D3       -1.57026  -0.00002   0.00000  -0.00014  -0.00014  -1.57040
    D4        3.14155  -0.00024   0.00000  -0.00099  -0.00099   3.14056
    D5        2.14445  -0.00201   0.00000  -0.00000   0.00008   2.14452
    D6       -2.06545  -0.00099   0.00000   0.00007   0.00011  -2.06534
    D7        2.07329   0.00102   0.00000   0.00007   0.00003   2.07332
         Item               Value     Threshold  Converged?
 Maximum Force            0.002640     0.000450     NO 
 RMS     Force            0.000870     0.000300     NO 
 Maximum Displacement     0.022894     0.001800     NO 
 RMS     Displacement     0.009276     0.001200     NO 
 Predicted change in Energy=-6.905144D-05
 GradGradGradGradGradGradGradGradGradGradGradGradGradGradGradGradGradGrad

                          Input orientation:                          
 ---------------------------------------------------------------------
 Center     Atomic      Atomic             Coordinates (Angstroms)
 Number     Number       Type             X           Y           Z
 ---------------------------------------------------------------------
      1         15           0       -0.863866   -0.076776    0.000252
      2          9           0       -0.855317   -0.094340    1.609577
      3          9           0        0.703661   -0.035446   -0.000536
      4          9           0       -1.679913   -1.415905   -0.000297
      5          9           0       -1.644702    1.284024    0.000159
      6          9           0       -0.854870   -0.094710   -1.609070
 ---------------------------------------------------------------------
                    Distance matrix (angstroms):
                    1          2          3          4          5
     1  P    0.000000
     2  F    1.609444   0.000000
     3  F    1.568071   2.241951   0.000000
     4  F    1.568184   2.240131   2.754468   0.000000
     5  F    1.568912   2.261248   2.693661   2.700159   0.000000
     6  F    1.609447   3.218648   2.240516   2.239287   2.261496
                    6
     6  F    0.000000
 Symmetry turned off by external request.
 Stoichiometry    F5P
 Framework group  C1[X(F5P)]
 Deg. of freedom    12
 Full point group                 C1      NOp   1
 Rotational constants (GHZ):           3.6044022           3.0345955           2.9642712
 Standard basis: 6-311++G(d,p) (5D, 7F)
   140 basis functions,   230 primitive gaussians,   146 cartesian basis functions
    30 alpha electrons       30 beta electrons
       nuclear repulsion energy       400.5227136732 Hartrees.
 NAtoms=    6 NActive=    6 NUniq=    6 SFac= 1.00D+00 NAtFMM=   60 NAOKFM=F Big=F
 Integral buffers will be    131072 words long.
 Raffenetti 2 integral format.
 Two-electron integral symmetry is turned off.
 ------------------------------------------------------------------------------
 Polarizable Continuum Model (PCM)
 =================================
 Model                : C-PCM.
 Atomic radii         : UFF (Universal Force Field).
 Polarization charges : Total charges.
 Charge compensation  : None.
 Solution method      : On-the-fly selection.
 Cavity type          : Scaled VdW (van der Waals Surface) (Alpha=1.100).
 Cavity algorithm     : GePol (No added spheres)
                        Default sphere list used, NSphG=    6.
                        Lebedev-Laikov grids with approx.  5.0 points / Ang**2.
                        Smoothing algorithm: York/Karplus (Gamma=1.0000).
                        Polarization charges: spherical gaussians, with
                                              point-specific exponents (IZeta= 3).
                        Self-potential: point-specific (ISelfS= 7).
                        Self-field    : sphere-specific E.n sum rule (ISelfD= 2).
 1st derivatives      : Analytical E(r).r(x)/FMM algorithm (CHGder, D1EAlg=3).
                        Cavity 1st derivative terms included.
 Solvent              : Water, Eps=  78.355300 Eps(inf)=   1.777849
 ------------------------------------------------------------------------------
 Spheres list:
 ISph  on   Nord     Re0    Alpha      Xe            Ye            Ze
    1   P      1    2.0735  1.100     -0.863866     -0.076776      0.000252
    2   F      2    1.6820  1.100     -0.855317     -0.094340      1.609577
    3   F      3    1.6820  1.100      0.703661     -0.035446     -0.000536
    4   F      4    1.6820  1.100     -1.679913     -1.415905     -0.000297
    5   F      5    1.6820  1.100     -1.644702      1.284024      0.000159
    6   F      6    1.6820  1.100     -0.854870     -0.094710     -1.609070
 ------------------------------------------------------------------------------
 One-electron integrals computed using PRISM.
 NBasis=   140 RedAO= T EigKep=  1.05D-03  NBF=   140
 NBsUse=   140 1.00D-06 EigRej= -1.00D+00 NBFU=   140
 Initial guess from the checkpoint file:  "pf5scn.chk"
 B after Tr=    -0.000601    0.001093    0.000044
         Rot=    1.000000    0.000000    0.000000    0.000000 Ang=   0.00 deg.
 ExpMin= 3.48D-02 ExpMax= 7.75D+04 ExpMxC= 2.65D+03 IAcc=3 IRadAn=         5 AccDes= 0.00D+00
 Harris functional with IExCor=  402 and IRadAn=       5 diagonalized for initial guess.
 HarFok:  IExCor=  402 AccDes= 0.00D+00 IRadAn=         5 IDoV= 1 UseB2=F ITyADJ=14
 ICtDFT=  3500011 ScaDFX=  1.000000  1.000000  1.000000  1.000000
 FoFCou: FMM=F IPFlag=           0 FMFlag=      100000 FMFlg1=           0
         NFxFlg=           0 DoJE=T BraDBF=F KetDBF=T FulRan=T
         wScrn=  0.000000 ICntrl=       500 IOpCl=  0 I1Cent=   200000004 NGrid=           0
         NMat0=    1 NMatS0=      1 NMatT0=    0 NMatD0=    1 NMtDS0=    0 NMtDT0=    0
 Symmetry not used in FoFCou.
 Keep R1 ints in memory in canonical form, NReq=79822883.
 Requested convergence on RMS density matrix=1.00D-08 within 800 cycles.
 Requested convergence on MAX density matrix=1.00D-06.
 Requested convergence on             energy=1.00D-06.
 No special actions if energy rises.
 Inv3:  Mode=1 IEnd=     2550252.
 Iteration    1 A*A^-1 deviation from unit magnitude is 6.00D-15 for    757.
 Iteration    1 A*A^-1 deviation from orthogonality  is 3.54D-15 for    431     86.
 Iteration    1 A^-1*A deviation from unit magnitude is 5.55D-15 for    757.
 Iteration    1 A^-1*A deviation from orthogonality  is 3.84D-15 for    758    432.
 Error on total polarization charges =  0.00423
 SCF Done:  E(RB3LYP) =  -840.865451465     A.U. after    8 cycles
            NFock=  8  Conv=0.58D-08     -V/T= 2.0021
 D1PCM: C-PCM CHGder 1st derivatives, ID1Alg=3 FixD1E=F DoIter=F DoCFld=F I1PDM=0.
 Calling FoFJK, ICntrl=      2127 FMM=F ISym2X=0 I1Cent= 0 IOpClX= 0 NMat=1 NMatS=1 NMatT=0.
 -------------------------------------------------------------------
 Center     Atomic                   Forces (Hartrees/Bohr)
 Number     Number              X              Y              Z
 -------------------------------------------------------------------
      1       15          -0.001584327    0.002565975   -0.000115428
      2        9          -0.000365540    0.000835286   -0.000104709
      3        9           0.001033013   -0.001074866    0.000195056
      4        9           0.000372418   -0.001513051    0.000119924
      5        9           0.001046585   -0.001757572   -0.000017589
      6        9          -0.000502149    0.000944228   -0.000077253
 -------------------------------------------------------------------
 Cartesian Forces:  Max     0.002565975 RMS     0.001053756

 GradGradGradGradGradGradGradGradGradGradGradGradGradGradGradGradGradGrad
 Berny optimization.
 Using GEDIIS/GDIIS optimizer.
 FormGI is forming the generalized inverse of G from B-inverse, IUseBI=4.
 Internal  Forces:  Max     0.002045316 RMS     0.000811586
 Search for a local minimum.
 Step number   2 out of a maximum of  100 on scan point     2 out of    21
 All quantities printed in internal units (Hartrees-Bohrs-Radians)
 Mixed Optimization -- En-DIIS/RFO-DIIS
 Update second derivatives using D2CorX and points    1    2
 DE= -2.93D-05 DEPred=-6.91D-05 R= 4.24D-01
 Trust test= 4.24D-01 RLast= 3.45D-02 DXMaxT set to 3.00D-01
 ITU=  0  0
 Use linear search instead of GDIIS.
     Eigenvalues ---    0.08144   0.09903   0.14008   0.16074   0.18927
     Eigenvalues ---    0.22680   0.49424   0.49431   0.57868   0.57872
     Eigenvalues ---    0.634861000.000001000.000001000.000001000.00000
     Eigenvalues --- 1000.000001000.000001000.000001000.000001000.00000
     Eigenvalues --- 1000.000001000.000001000.00000
 RFO step:  Lambda=-3.58655769D-06 EMin= 8.14401510D-02
 Quartic linear search produced a step of -0.36569.
 Iteration  1 RMS(Cart)=  0.00328231 RMS(Int)=  0.00000849
 Iteration  2 RMS(Cart)=  0.00000801 RMS(Int)=  0.00000285
 Iteration  3 RMS(Cart)=  0.00000000 RMS(Int)=  0.00000285
 Iteration  1 RMS(Cart)=  0.00000044 RMS(Int)=  0.00000059
 Variable       Old X    -DE/DX   Delta X   Delta X   Delta X     New X
                                 (Linear)    (Quad)   (Total)
    R1        3.04141  -0.00012   0.00002  -0.00018  -0.00015   3.04126
    R2        2.96323   0.00100   0.00014   0.00095   0.00109   2.96432
    R3        2.96344   0.00110   0.00015   0.00104   0.00119   2.96463
    R4        2.96481  -0.00205  -0.00038  -0.00183  -0.00221   2.96260
    R5        3.04141   0.00006   0.00002   0.00007   0.00008   3.04150
    A1        1.56628   0.00011   0.00189  -0.00095   0.00094   1.56721
    A2        1.56459   0.00029   0.00215  -0.00039   0.00176   1.56635
    A3        1.58296  -0.00062  -0.00455   0.00064  -0.00392   1.57905
    A4        2.14445  -0.00109  -0.00000   0.00000   0.00001   2.14446
    A5        2.06537   0.00053   0.00003  -0.00011  -0.00008   2.06529
    A6        1.56500   0.00058   0.00230   0.00018   0.00248   1.56748
    A7        2.07336   0.00056  -0.00003   0.00011   0.00008   2.07344
    A8        1.56384   0.00058   0.00244   0.00026   0.00270   1.56654
    A9        1.58318  -0.00103  -0.00462   0.00029  -0.00432   1.57886
   A10        3.13128   0.00069   0.00418  -0.00077   0.00342   3.13469
   A11        3.11926   0.00150   0.00816  -0.00064   0.00752   3.12678
    D1       -1.56141  -0.00033  -0.00363   0.00138  -0.00225  -1.56366
    D2        1.57222  -0.00021  -0.00031  -0.00074  -0.00105   1.57117
    D3       -1.57040   0.00001   0.00005   0.00009   0.00015  -1.57026
    D4        3.14056   0.00022   0.00036   0.00083   0.00119  -3.14143
    D5        2.14452  -0.00110  -0.00003  -0.00001  -0.00004   2.14448
    D6       -2.06534  -0.00053  -0.00004   0.00010   0.00006  -2.06528
    D7        2.07332   0.00057  -0.00001   0.00011   0.00010   2.07342
         Item               Value     Threshold  Converged?
 Maximum Force            0.002045     0.000450     NO 
 RMS     Force            0.000727     0.000300     NO 
 Maximum Displacement     0.008475     0.001800     NO 
 RMS     Displacement     0.003283     0.001200     NO 
 Predicted change in Energy=-1.610061D-05
 GradGradGradGradGradGradGradGradGradGradGradGradGradGradGradGradGradGrad

                          Input orientation:                          
 ---------------------------------------------------------------------
 Center     Atomic      Atomic             Coordinates (Angstroms)
 Number     Number       Type             X           Y           Z
 ---------------------------------------------------------------------
      1         15           0       -0.863052   -0.078523   -0.000001
      2          9           0       -0.857129   -0.090366    1.609309
      3          9           0        0.705050   -0.037131    0.000153
      4          9           0       -1.679397   -1.418210    0.000122
      5          9           0       -1.643234    1.281302   -0.000060
      6          9           0       -0.857245   -0.090225   -1.609438
 ---------------------------------------------------------------------
                    Distance matrix (angstroms):
                    1          2          3          4          5
     1  P    0.000000
     2  F    1.609364   0.000000
     3  F    1.568649   2.243350   0.000000
     4  F    1.568815   2.242493   2.755534   0.000000
     5  F    1.567740   2.255993   2.693085   2.699755   0.000000
     6  F    1.609490   3.218747   2.243740   2.242803   2.255873
                    6
     6  F    0.000000
 Symmetry turned off by external request.
 Stoichiometry    F5P
 Framework group  C1[X(F5P)]
 Deg. of freedom    12
 Full point group                 C1      NOp   1
 Rotational constants (GHZ):           3.6046194           3.0356580           2.9631953
 Standard basis: 6-311++G(d,p) (5D, 7F)
   140 basis functions,   230 primitive gaussians,   146 cartesian basis functions
    30 alpha electrons       30 beta electrons
       nuclear repulsion energy       400.5238511702 Hartrees.
 NAtoms=    6 NActive=    6 NUniq=    6 SFac= 1.00D+00 NAtFMM=   60 NAOKFM=F Big=F
 Integral buffers will be    131072 words long.
 Raffenetti 2 integral format.
 Two-electron integral symmetry is turned off.
 ------------------------------------------------------------------------------
 Polarizable Continuum Model (PCM)
 =================================
 Model                : C-PCM.
 Atomic radii         : UFF (Universal Force Field).
 Polarization charges : Total charges.
 Charge compensation  : None.
 Solution method      : On-the-fly selection.
 Cavity type          : Scaled VdW (van der Waals Surface) (Alpha=1.100).
 Cavity algorithm     : GePol (No added spheres)
                        Default sphere list used, NSphG=    6.
                        Lebedev-Laikov grids with approx.  5.0 points / Ang**2.
                        Smoothing algorithm: York/Karplus (Gamma=1.0000).
                        Polarization charges: spherical gaussians, with
                                              point-specific exponents (IZeta= 3).
                        Self-potential: point-specific (ISelfS= 7).
                        Self-field    : sphere-specific E.n sum rule (ISelfD= 2).
 1st derivatives      : Analytical E(r).r(x)/FMM algorithm (CHGder, D1EAlg=3).
                        Cavity 1st derivative terms included.
 Solvent              : Water, Eps=  78.355300 Eps(inf)=   1.777849
 ------------------------------------------------------------------------------
 Spheres list:
 ISph  on   Nord     Re0    Alpha      Xe            Ye            Ze
    1   P      1    2.0735  1.100     -0.863052     -0.078523     -0.000001
    2   F      2    1.6820  1.100     -0.857129     -0.090366      1.609309
    3   F      3    1.6820  1.100      0.705050     -0.037131      0.000153
    4   F      4    1.6820  1.100     -1.679397     -1.418210      0.000122
    5   F      5    1.6820  1.100     -1.643234      1.281302     -0.000060
    6   F      6    1.6820  1.100     -0.857245     -0.090225     -1.609438
 ------------------------------------------------------------------------------
 One-electron integrals computed using PRISM.
 NBasis=   140 RedAO= T EigKep=  1.05D-03  NBF=   140
 NBsUse=   140 1.00D-06 EigRej= -1.00D+00 NBFU=   140
 Initial guess from the checkpoint file:  "pf5scn.chk"
 B after Tr=     0.000154   -0.000330   -0.000048
         Rot=    1.000000   -0.000000   -0.000000   -0.000000 Ang=  -0.00 deg.
 Keep R1 ints in memory in canonical form, NReq=79822883.
 Requested convergence on RMS density matrix=1.00D-08 within 800 cycles.
 Requested convergence on MAX density matrix=1.00D-06.
 Requested convergence on             energy=1.00D-06.
 No special actions if energy rises.
 Inv3:  Mode=1 IEnd=     2550252.
 Iteration    1 A*A^-1 deviation from unit magnitude is 4.66D-15 for    355.
 Iteration    1 A*A^-1 deviation from orthogonality  is 4.04D-15 for    598     85.
 Iteration    1 A^-1*A deviation from unit magnitude is 4.66D-15 for    543.
 Iteration    1 A^-1*A deviation from orthogonality  is 2.14D-15 for    273    113.
 Error on total polarization charges =  0.00423
 SCF Done:  E(RB3LYP) =  -840.865468375     A.U. after    7 cycles
            NFock=  7  Conv=0.48D-08     -V/T= 2.0021
 D1PCM: C-PCM CHGder 1st derivatives, ID1Alg=3 FixD1E=F DoIter=F DoCFld=F I1PDM=0.
 Calling FoFJK, ICntrl=      2127 FMM=F ISym2X=0 I1Cent= 0 IOpClX= 0 NMat=1 NMatS=1 NMatT=0.
 -------------------------------------------------------------------
 Center     Atomic                   Forces (Hartrees/Bohr)
 Number     Number              X              Y              Z
 -------------------------------------------------------------------
      1       15          -0.001661596    0.002857096   -0.000029451
      2        9          -0.000025934    0.000007574    0.000020685
      3        9           0.000334984   -0.001423662   -0.000047796
      4        9           0.001076500   -0.000953189   -0.000037642
      5        9           0.000267041   -0.000451996    0.000016291
      6        9           0.000009004   -0.000035822    0.000077914
 -------------------------------------------------------------------
 Cartesian Forces:  Max     0.002857096 RMS     0.000925545

 GradGradGradGradGradGradGradGradGradGradGradGradGradGradGradGradGradGrad
 Berny optimization.
 Using GEDIIS/GDIIS optimizer.
 FormGI is forming the generalized inverse of G from B-inverse, IUseBI=4.
 Internal  Forces:  Max     0.001406987 RMS     0.000526841
 Search for a local minimum.
 Step number   3 out of a maximum of  100 on scan point     2 out of    21
 All quantities printed in internal units (Hartrees-Bohrs-Radians)
 Mixed Optimization -- En-DIIS/RFO-DIIS
 Swapping is turned off.
 Update second derivatives using D2CorX and points    1    2    3
 DE= -1.69D-05 DEPred=-1.61D-05 R= 1.05D+00
 TightC=F SS=  1.41D+00  RLast= 1.16D-02 DXNew= 5.0454D-01 3.4835D-02
 Trust test= 1.05D+00 RLast= 1.16D-02 DXMaxT set to 3.00D-01
 ITU=  1  0  0
     Eigenvalues ---    0.08166   0.09904   0.14008   0.16712   0.19023
     Eigenvalues ---    0.23699   0.49223   0.49466   0.51666   0.57872
     Eigenvalues ---    0.579211000.000001000.000001000.000001000.00000
     Eigenvalues --- 1000.000001000.000001000.000001000.000001000.00000
     Eigenvalues --- 1000.000001000.000001000.00000
 En-DIIS/RFO-DIIS/Sim-DIIS IScMMF=       -3 using points:     3    2
 RFO step:  Lambda=-9.57409778D-07.
 DidBck=F Rises=F RFO-DIIS coefs:    0.99410    0.00590
 Iteration  1 RMS(Cart)=  0.00027595 RMS(Int)=  0.00000025
 Iteration  2 RMS(Cart)=  0.00000003 RMS(Int)=  0.00000025
 Iteration  1 RMS(Cart)=  0.00000017 RMS(Int)=  0.00000023
 Variable       Old X    -DE/DX   Delta X   Delta X   Delta X     New X
                                 (Linear)    (Quad)   (Total)
    R1        3.04126   0.00002   0.00000   0.00004   0.00004   3.04129
    R2        2.96432   0.00030  -0.00001   0.00061   0.00060   2.96492
    R3        2.96463   0.00025  -0.00001   0.00053   0.00052   2.96515
    R4        2.96260  -0.00052   0.00001  -0.00108  -0.00106   2.96154
    R5        3.04150  -0.00008  -0.00000  -0.00017  -0.00017   3.04133
    A1        1.56721   0.00002  -0.00001   0.00022   0.00021   1.56743
    A2        1.56635   0.00001  -0.00001   0.00006   0.00005   1.56639
    A3        1.57905  -0.00003   0.00002  -0.00003  -0.00000   1.57904
    A4        2.14446  -0.00141  -0.00000   0.00000  -0.00000   2.14445
    A5        2.06529   0.00070   0.00000   0.00000   0.00000   2.06529
    A6        1.56748  -0.00003  -0.00001  -0.00018  -0.00019   1.56729
    A7        2.07344   0.00070  -0.00000   0.00000  -0.00000   2.07344
    A8        1.56654  -0.00005  -0.00002  -0.00030  -0.00032   1.56623
    A9        1.57886   0.00006   0.00003   0.00024   0.00027   1.57913
   A10        3.13469  -0.00001  -0.00002   0.00004   0.00002   3.13471
   A11        3.12678  -0.00003  -0.00004  -0.00026  -0.00031   3.12647
    D1       -1.56366  -0.00005   0.00001  -0.00030  -0.00028  -1.56394
    D2        1.57117   0.00002   0.00001   0.00023   0.00024   1.57141
    D3       -1.57026  -0.00000  -0.00000  -0.00005  -0.00005  -1.57031
    D4       -3.14143  -0.00002  -0.00001  -0.00028  -0.00029   3.14146
    D5        2.14448  -0.00141   0.00000   0.00000   0.00000   2.14448
    D6       -2.06528  -0.00070  -0.00000  -0.00000  -0.00000  -2.06528
    D7        2.07342   0.00070  -0.00000  -0.00000  -0.00000   2.07342
         Item               Value     Threshold  Converged?
 Maximum Force            0.000525     0.000450     NO 
 RMS     Force            0.000142     0.000300     YES
 Maximum Displacement     0.000541     0.001800     YES
 RMS     Displacement     0.000276     0.001200     YES
 Predicted change in Energy=-4.815396D-07
 GradGradGradGradGradGradGradGradGradGradGradGradGradGradGradGradGradGrad

                          Input orientation:                          
 ---------------------------------------------------------------------
 Center     Atomic      Atomic             Coordinates (Angstroms)
 Number     Number       Type             X           Y           Z
 ---------------------------------------------------------------------
      1         15           0       -0.863125   -0.078321    0.000046
      2          9           0       -0.857290   -0.090292    1.609375
      3          9           0        0.705295   -0.036922   -0.000043
      4          9           0       -1.679612   -1.418244   -0.000053
      5          9           0       -1.643028    1.281016    0.000058
      6          9           0       -0.857247   -0.090391   -1.609299
 ---------------------------------------------------------------------
                    Distance matrix (angstroms):
                    1          2          3          4          5
     1  P    0.000000
     2  F    1.609384   0.000000
     3  F    1.568966   2.243824   0.000000
     4  F    1.569091   2.242751   2.756053   0.000000
     5  F    1.567177   2.255608   2.692875   2.699508   0.000000
     6  F    1.609401   3.218674   2.243680   2.242576   2.255713
                    6
     6  F    0.000000
 Symmetry turned off by external request.
 Stoichiometry    F5P
 Framework group  C1[X(F5P)]
 Deg. of freedom    12
 Full point group                 C1      NOp   1
 Rotational constants (GHZ):           3.6045589           3.0361883           2.9628036
 Standard basis: 6-311++G(d,p) (5D, 7F)
   140 basis functions,   230 primitive gaussians,   146 cartesian basis functions
    30 alpha electrons       30 beta electrons
       nuclear repulsion energy       400.5257603338 Hartrees.
 NAtoms=    6 NActive=    6 NUniq=    6 SFac= 1.00D+00 NAtFMM=   60 NAOKFM=F Big=F
 Integral buffers will be    131072 words long.
 Raffenetti 2 integral format.
 Two-electron integral symmetry is turned off.
 ------------------------------------------------------------------------------
 Polarizable Continuum Model (PCM)
 =================================
 Model                : C-PCM.
 Atomic radii         : UFF (Universal Force Field).
 Polarization charges : Total charges.
 Charge compensation  : None.
 Solution method      : On-the-fly selection.
 Cavity type          : Scaled VdW (van der Waals Surface) (Alpha=1.100).
 Cavity algorithm     : GePol (No added spheres)
                        Default sphere list used, NSphG=    6.
                        Lebedev-Laikov grids with approx.  5.0 points / Ang**2.
                        Smoothing algorithm: York/Karplus (Gamma=1.0000).
                        Polarization charges: spherical gaussians, with
                                              point-specific exponents (IZeta= 3).
                        Self-potential: point-specific (ISelfS= 7).
                        Self-field    : sphere-specific E.n sum rule (ISelfD= 2).
 1st derivatives      : Analytical E(r).r(x)/FMM algorithm (CHGder, D1EAlg=3).
                        Cavity 1st derivative terms included.
 Solvent              : Water, Eps=  78.355300 Eps(inf)=   1.777849
 ------------------------------------------------------------------------------
 Spheres list:
 ISph  on   Nord     Re0    Alpha      Xe            Ye            Ze
    1   P      1    2.0735  1.100     -0.863125     -0.078321      0.000046
    2   F      2    1.6820  1.100     -0.857290     -0.090292      1.609375
    3   F      3    1.6820  1.100      0.705295     -0.036922     -0.000043
    4   F      4    1.6820  1.100     -1.679612     -1.418244     -0.000053
    5   F      5    1.6820  1.100     -1.643028      1.281016      0.000058
    6   F      6    1.6820  1.100     -0.857247     -0.090391     -1.609299
 ------------------------------------------------------------------------------
 One-electron integrals computed using PRISM.
 NBasis=   140 RedAO= T EigKep=  1.05D-03  NBF=   140
 NBsUse=   140 1.00D-06 EigRej= -1.00D+00 NBFU=   140
 Initial guess from the checkpoint file:  "pf5scn.chk"
 B after Tr=    -0.000014    0.000038    0.000009
         Rot=    1.000000    0.000000    0.000000   -0.000000 Ang=   0.00 deg.
 Keep R1 ints in memory in canonical form, NReq=79822883.
 Requested convergence on RMS density matrix=1.00D-08 within 800 cycles.
 Requested convergence on MAX density matrix=1.00D-06.
 Requested convergence on             energy=1.00D-06.
 No special actions if energy rises.
 Inv3:  Mode=1 IEnd=     2550252.
 Iteration    1 A*A^-1 deviation from unit magnitude is 4.88D-15 for    428.
 Iteration    1 A*A^-1 deviation from orthogonality  is 2.28D-15 for    273    113.
 Iteration    1 A^-1*A deviation from unit magnitude is 4.88D-15 for    428.
 Iteration    1 A^-1*A deviation from orthogonality  is 2.53D-15 for    273    113.
 Error on total polarization charges =  0.00423
 SCF Done:  E(RB3LYP) =  -840.865468994     A.U. after    6 cycles
            NFock=  6  Conv=0.91D-08     -V/T= 2.0021
 D1PCM: C-PCM CHGder 1st derivatives, ID1Alg=3 FixD1E=F DoIter=F DoCFld=F I1PDM=0.
 Calling FoFJK, ICntrl=      2127 FMM=F ISym2X=0 I1Cent= 0 IOpClX= 0 NMat=1 NMatS=1 NMatT=0.
 -------------------------------------------------------------------
 Center     Atomic                   Forces (Hartrees/Bohr)
 Number     Number              X              Y              Z
 -------------------------------------------------------------------
      1       15          -0.001418634    0.002424045   -0.000020776
      2        9           0.000026661   -0.000034717   -0.000018783
      3        9           0.000127218   -0.001421651    0.000020258
      4        9           0.001154811   -0.000822024    0.000024110
      5        9           0.000095941   -0.000139703   -0.000010779
      6        9           0.000014002   -0.000005950    0.000005970
 -------------------------------------------------------------------
 Cartesian Forces:  Max     0.002424045 RMS     0.000815404

 GradGradGradGradGradGradGradGradGradGradGradGradGradGradGradGradGradGrad
 Berny optimization.
 Using GEDIIS/GDIIS optimizer.
 FormGI is forming the generalized inverse of G from B-inverse, IUseBI=4.
 Internal  Forces:  Max     0.001402595 RMS     0.000508831
 Search for a local minimum.
 Step number   4 out of a maximum of  100 on scan point     2 out of    21
 All quantities printed in internal units (Hartrees-Bohrs-Radians)
 Mixed Optimization -- En-DIIS/RFO-DIIS
 Swapping is turned off.
 Update second derivatives using D2CorX and points    1    2    3    4
 DE= -6.19D-07 DEPred=-4.82D-07 R= 1.29D+00
 Trust test= 1.29D+00 RLast= 1.54D-03 DXMaxT set to 3.00D-01
 ITU=  0  1  0  0
     Eigenvalues ---    0.08579   0.09954   0.13952   0.14932   0.18776
     Eigenvalues ---    0.24347   0.37432   0.49549   0.49977   0.57887
     Eigenvalues ---    0.580511000.000001000.000001000.000001000.00000
     Eigenvalues --- 1000.000001000.000001000.000001000.000001000.00000
     Eigenvalues --- 1000.000001000.000001000.00000
 En-DIIS/RFO-DIIS/Sim-DIIS IScMMF=       -3 using points:     4    3    2
 RFO step:  Lambda=-2.53070043D-07.
 DidBck=F Rises=F RFO-DIIS coefs:    1.41013   -0.43483    0.02469
 Iteration  1 RMS(Cart)=  0.00021912 RMS(Int)=  0.00000022
 Iteration  2 RMS(Cart)=  0.00000004 RMS(Int)=  0.00000021
 Iteration  1 RMS(Cart)=  0.00000009 RMS(Int)=  0.00000012
 Variable       Old X    -DE/DX   Delta X   Delta X   Delta X     New X
                                 (Linear)    (Quad)   (Total)
    R1        3.04129  -0.00002   0.00002  -0.00007  -0.00006   3.04124
    R2        2.96492   0.00009   0.00022   0.00014   0.00036   2.96527
    R3        2.96515   0.00010   0.00018   0.00019   0.00038   2.96553
    R4        2.96154  -0.00017  -0.00038  -0.00029  -0.00067   2.96087
    R5        3.04133  -0.00001  -0.00007   0.00003  -0.00004   3.04129
    A1        1.56743  -0.00002   0.00006  -0.00034  -0.00028   1.56715
    A2        1.56639  -0.00003  -0.00002  -0.00020  -0.00023   1.56617
    A3        1.57904   0.00004   0.00010   0.00027   0.00036   1.57941
    A4        2.14445  -0.00140  -0.00000   0.00000  -0.00000   2.14445
    A5        2.06529   0.00070   0.00000  -0.00005  -0.00005   2.06525
    A6        1.56729  -0.00001  -0.00014   0.00006  -0.00008   1.56721
    A7        2.07344   0.00071  -0.00000   0.00005   0.00005   2.07349
    A8        1.56623   0.00000  -0.00020   0.00028   0.00008   1.56631
    A9        1.57913   0.00000   0.00022  -0.00006   0.00016   1.57928
   A10        3.13471  -0.00003  -0.00008  -0.00028  -0.00035   3.13436
   A11        3.12647  -0.00003  -0.00031  -0.00009  -0.00040   3.12607
    D1       -1.56394   0.00003  -0.00006   0.00053   0.00047  -1.56347
    D2        1.57141   0.00000   0.00012  -0.00024  -0.00012   1.57130
    D3       -1.57031   0.00000  -0.00002   0.00008   0.00006  -1.57025
    D4        3.14146   0.00000  -0.00015   0.00033   0.00018  -3.14154
    D5        2.14448  -0.00140   0.00000  -0.00000  -0.00000   2.14448
    D6       -2.06528  -0.00070  -0.00000   0.00005   0.00005  -2.06523
    D7        2.07342   0.00071  -0.00000   0.00005   0.00005   2.07347
         Item               Value     Threshold  Converged?
 Maximum Force            0.000169     0.000450     YES
 RMS     Force            0.000049     0.000300     YES
 Maximum Displacement     0.000444     0.001800     YES
 RMS     Displacement     0.000219     0.001200     YES
 Predicted change in Energy=-1.290721D-07
 Optimization completed.
    -- Stationary point found.
                           ----------------------------
                           !   Optimized Parameters   !
                           ! (Angstroms and Degrees)  !
 --------------------------                            --------------------------
 ! Name  Definition              Value          Derivative Info.                !
 --------------------------------------------------------------------------------
 ! R1    R(1,2)                  1.6094         -DE/DX =    0.0                 !
 ! R2    R(1,3)                  1.569          -DE/DX =    0.0001              !
 ! R3    R(1,4)                  1.5691         -DE/DX =    0.0001              !
 ! R4    R(1,5)                  1.5672         -DE/DX =   -0.0002              !
 ! R5    R(1,6)                  1.6094         -DE/DX =    0.0                 !
 ! A1    A(2,1,3)               89.8069         -DE/DX =    0.0                 !
 ! A2    A(2,1,4)               89.7478         -DE/DX =    0.0                 !
 ! A3    A(2,1,5)               90.4726         -DE/DX =    0.0                 !
 ! A4    A(3,1,4)              122.8682         -DE/DX =   -0.0014              !
 ! A5    A(3,1,5)              118.3325         -DE/DX =    0.0007              !
 ! A6    A(3,1,6)               89.7989         -DE/DX =    0.0                 !
 ! A7    A(4,1,5)              118.7993         -DE/DX =    0.0007              !
 ! A8    A(4,1,6)               89.7383         -DE/DX =    0.0                 !
 ! A9    A(5,1,6)               90.4773         -DE/DX =    0.0                 !
 ! A10   L(2,1,6,3,-1)         179.6058         -DE/DX =    0.0                 !
 ! A11   L(2,1,6,3,-2)         179.1334         -DE/DX =    0.0                 !
 ! D1    D(2,1,4,3)            -89.6071         -DE/DX =    0.0                 !
 ! D2    D(2,1,5,3)             90.0354         -DE/DX =    0.0                 !
 ! D3    D(2,1,5,4)            -89.972          -DE/DX =    0.0                 !
 ! D4    D(3,1,5,4)           -180.0074         -DE/DX =    0.0                 !
 ! D5    D(3,1,6,4)            122.8699         -DE/DX =   -0.0014              !
 ! D6    D(3,1,6,5)           -118.3319         -DE/DX =   -0.0007              !
 ! D7    D(4,1,6,5)            118.7982         -DE/DX =    0.0007              !
 --------------------------------------------------------------------------------
 Iteration  1 RMS(Cart)=  0.00657203 RMS(Int)=  0.00891426
 Iteration  2 RMS(Cart)=  0.00003203 RMS(Int)=  0.00891420
 Iteration  3 RMS(Cart)=  0.00000001 RMS(Int)=  0.00891420
 Iteration  1 RMS(Cart)=  0.00437435 RMS(Int)=  0.00594306
 Iteration  2 RMS(Cart)=  0.00291314 RMS(Int)=  0.00657029
 Iteration  3 RMS(Cart)=  0.00194072 RMS(Int)=  0.00755793
 Iteration  4 RMS(Cart)=  0.00129320 RMS(Int)=  0.00838455
 Iteration  5 RMS(Cart)=  0.00086186 RMS(Int)=  0.00898938
 Iteration  6 RMS(Cart)=  0.00057446 RMS(Int)=  0.00941171
 Iteration  7 RMS(Cart)=  0.00038292 RMS(Int)=  0.00970058
 Iteration  8 RMS(Cart)=  0.00025525 RMS(Int)=  0.00989613
 Iteration  9 RMS(Cart)=  0.00017016 RMS(Int)=  0.01002772
 Iteration 10 RMS(Cart)=  0.00011344 RMS(Int)=  0.01011598
 Iteration 11 RMS(Cart)=  0.00007562 RMS(Int)=  0.01017504
 Iteration 12 RMS(Cart)=  0.00005041 RMS(Int)=  0.01021452
 Iteration 13 RMS(Cart)=  0.00003361 RMS(Int)=  0.01024088
 Iteration 14 RMS(Cart)=  0.00002241 RMS(Int)=  0.01025847
 Iteration 15 RMS(Cart)=  0.00001494 RMS(Int)=  0.01027021
 Iteration 16 RMS(Cart)=  0.00000996 RMS(Int)=  0.01027804
 Iteration 17 RMS(Cart)=  0.00000664 RMS(Int)=  0.01028326
 Iteration 18 RMS(Cart)=  0.00000443 RMS(Int)=  0.01028674
 Iteration 19 RMS(Cart)=  0.00000295 RMS(Int)=  0.01028906
 Iteration 20 RMS(Cart)=  0.00000197 RMS(Int)=  0.01029061
 Iteration 21 RMS(Cart)=  0.00000131 RMS(Int)=  0.01029164
 Iteration 22 RMS(Cart)=  0.00000087 RMS(Int)=  0.01029233
 GradGradGradGradGradGradGradGradGradGradGradGradGradGradGradGradGradGrad

                          Input orientation:                          
 ---------------------------------------------------------------------
 Center     Atomic      Atomic             Coordinates (Angstroms)
 Number     Number       Type             X           Y           Z
 ---------------------------------------------------------------------
      1         15           0       -0.857241   -0.088665   -0.000014
      2          9           0       -0.850985   -0.100982    1.609281
      3          9           0        0.709793   -0.006180    0.000075
      4          9           0       -1.708624   -1.406987    0.000200
      5          9           0       -1.636935    1.270383   -0.000119
      6          9           0       -0.851015   -0.100723   -1.609337
 ---------------------------------------------------------------------
                    Distance matrix (angstroms):
                    1          2          3          4          5
     1  P    0.000000
     2  F    1.609355   0.000000
     3  F    1.569203   2.243783   0.000000
     4  F    1.569339   2.242840   2.794817   0.000000
     5  F    1.566823   2.255777   2.671469   2.678330   0.000000
     6  F    1.609380   3.218618   2.243940   2.243307   2.255478
                    6
     6  F    0.000000
 Symmetry turned off by external request.
 Stoichiometry    F5P
 Framework group  C1[X(F5P)]
 Deg. of freedom    12
 Full point group                 C1      NOp   1
 Rotational constants (GHZ):           3.6051435           3.0743405           2.9278560
 Standard basis: 6-311++G(d,p) (5D, 7F)
   140 basis functions,   230 primitive gaussians,   146 cartesian basis functions
    30 alpha electrons       30 beta electrons
       nuclear repulsion energy       400.5526771455 Hartrees.
 NAtoms=    6 NActive=    6 NUniq=    6 SFac= 1.00D+00 NAtFMM=   60 NAOKFM=F Big=F
 Integral buffers will be    131072 words long.
 Raffenetti 2 integral format.
 Two-electron integral symmetry is turned off.
 ------------------------------------------------------------------------------
 Polarizable Continuum Model (PCM)
 =================================
 Model                : C-PCM.
 Atomic radii         : UFF (Universal Force Field).
 Polarization charges : Total charges.
 Charge compensation  : None.
 Solution method      : On-the-fly selection.
 Cavity type          : Scaled VdW (van der Waals Surface) (Alpha=1.100).
 Cavity algorithm     : GePol (No added spheres)
                        Default sphere list used, NSphG=    6.
                        Lebedev-Laikov grids with approx.  5.0 points / Ang**2.
                        Smoothing algorithm: York/Karplus (Gamma=1.0000).
                        Polarization charges: spherical gaussians, with
                                              point-specific exponents (IZeta= 3).
                        Self-potential: point-specific (ISelfS= 7).
                        Self-field    : sphere-specific E.n sum rule (ISelfD= 2).
 1st derivatives      : Analytical E(r).r(x)/FMM algorithm (CHGder, D1EAlg=3).
                        Cavity 1st derivative terms included.
 Solvent              : Water, Eps=  78.355300 Eps(inf)=   1.777849
 ------------------------------------------------------------------------------
 Spheres list:
 ISph  on   Nord     Re0    Alpha      Xe            Ye            Ze
    1   P      1    2.0735  1.100     -0.857241     -0.088665     -0.000014
    2   F      2    1.6820  1.100     -0.850985     -0.100982      1.609281
    3   F      3    1.6820  1.100      0.709793     -0.006180      0.000075
    4   F      4    1.6820  1.100     -1.708624     -1.406987      0.000200
    5   F      5    1.6820  1.100     -1.636935      1.270383     -0.000119
    6   F      6    1.6820  1.100     -0.851015     -0.100723     -1.609337
 ------------------------------------------------------------------------------
 One-electron integrals computed using PRISM.
 NBasis=   140 RedAO= T EigKep=  1.05D-03  NBF=   140
 NBsUse=   140 1.00D-06 EigRej= -1.00D+00 NBFU=   140
 Initial guess from the checkpoint file:  "pf5scn.chk"
 B after Tr=     0.001112   -0.001953   -0.000012
         Rot=    1.000000   -0.000000   -0.000000   -0.000001 Ang=  -0.00 deg.
 Keep R1 ints in memory in canonical form, NReq=79822883.
 Requested convergence on RMS density matrix=1.00D-08 within 800 cycles.
 Requested convergence on MAX density matrix=1.00D-06.
 Requested convergence on             energy=1.00D-06.
 No special actions if energy rises.
 Inv3:  Mode=1 IEnd=     2566875.
 Iteration    1 A*A^-1 deviation from unit magnitude is 5.00D-15 for    367.
 Iteration    1 A*A^-1 deviation from orthogonality  is 2.16D-15 for    728    362.
 Iteration    1 A^-1*A deviation from unit magnitude is 5.00D-15 for    367.
 Iteration    1 A^-1*A deviation from orthogonality  is 2.59D-15 for    762    438.
 Error on total polarization charges =  0.00422
 SCF Done:  E(RB3LYP) =  -840.865109605     A.U. after    9 cycles
            NFock=  9  Conv=0.16D-08     -V/T= 2.0021
 D1PCM: C-PCM CHGder 1st derivatives, ID1Alg=3 FixD1E=F DoIter=F DoCFld=F I1PDM=0.
 Calling FoFJK, ICntrl=      2127 FMM=F ISym2X=0 I1Cent= 0 IOpClX= 0 NMat=1 NMatS=1 NMatT=0.
 -------------------------------------------------------------------
 Center     Atomic                   Forces (Hartrees/Bohr)
 Number     Number              X              Y              Z
 -------------------------------------------------------------------
      1       15          -0.004254578    0.007633166    0.000006808
      2        9           0.000956488   -0.001645649   -0.000068756
      3        9           0.000060661   -0.003328219   -0.000021084
      4        9           0.002655709   -0.001542950   -0.000060382
      5        9          -0.000380578    0.000607941    0.000035458
      6        9           0.000962299   -0.001724290    0.000107955
 -------------------------------------------------------------------
 Cartesian Forces:  Max     0.007633166 RMS     0.002414531

 GradGradGradGradGradGradGradGradGradGradGradGradGradGradGradGradGradGrad
 Berny optimization.
 FormGI is forming the generalized inverse of G from B-inverse, IUseBI=4.
 Internal  Forces:  Max     0.003164665 RMS     0.001470349
 Search for a local minimum.
 Step number   1 out of a maximum of  100 on scan point     3 out of    21
 All quantities printed in internal units (Hartrees-Bohrs-Radians)
 Mixed Optimization -- RFO/linear search
 Second derivative matrix not updated -- first step.
 ITU=  0
     Eigenvalues ---    0.08668   0.10118   0.13951   0.14924   0.18937
     Eigenvalues ---    0.24272   0.37442   0.49550   0.49978   0.57887
     Eigenvalues ---    0.580521000.000001000.000001000.000001000.00000
     Eigenvalues --- 1000.000001000.000001000.000001000.000001000.00000
     Eigenvalues --- 1000.000001000.000001000.00000
 RFO step:  Lambda=-1.05732661D-04 EMin= 8.66767875D-02
 Linear search not attempted -- first point.
 Iteration  1 RMS(Cart)=  0.00646774 RMS(Int)=  0.00003888
 Iteration  2 RMS(Cart)=  0.00003837 RMS(Int)=  0.00000697
 Iteration  3 RMS(Cart)=  0.00000000 RMS(Int)=  0.00000697
 Iteration  1 RMS(Cart)=  0.00000298 RMS(Int)=  0.00000406
 Iteration  2 RMS(Cart)=  0.00000198 RMS(Int)=  0.00000449
 Iteration  3 RMS(Cart)=  0.00000132 RMS(Int)=  0.00000516
 Iteration  4 RMS(Cart)=  0.00000088 RMS(Int)=  0.00000572
 Variable       Old X    -DE/DX   Delta X   Delta X   Delta X     New X
                                 (Linear)    (Quad)   (Total)
    R1        3.04124  -0.00005   0.00000  -0.00029  -0.00029   3.04095
    R2        2.96536  -0.00011   0.00000   0.00192   0.00192   2.96728
    R3        2.96562  -0.00015   0.00000   0.00192   0.00192   2.96755
    R4        2.96087   0.00072   0.00000  -0.00287  -0.00287   2.95799
    R5        3.04129  -0.00009   0.00000  -0.00024  -0.00024   3.04105
    A1        1.56726  -0.00041   0.00000  -0.00403  -0.00403   1.56323
    A2        1.56634  -0.00057   0.00000  -0.00379  -0.00378   1.56256
    A3        1.57944   0.00133   0.00000   0.00896   0.00896   1.58839
    A4        2.19681  -0.00316   0.00000   0.00000  -0.00000   2.19681
    A5        2.03907   0.00166   0.00000   0.00043   0.00043   2.03950
    A6        1.56738  -0.00100   0.00000  -0.00422  -0.00422   1.56317
    A7        2.04731   0.00151   0.00000  -0.00043  -0.00043   2.04688
    A8        1.56674  -0.00101   0.00000  -0.00463  -0.00463   1.56211
    A9        1.57915   0.00189   0.00000   0.00935   0.00935   1.58851
   A10        3.13464  -0.00141   0.00000  -0.00824  -0.00825   3.12640
   A11        3.12606  -0.00291   0.00000  -0.01635  -0.01635   3.10971
    D1       -1.56321   0.00088   0.00000   0.00771   0.00771  -1.55550
    D2        1.57120   0.00023   0.00000   0.00002   0.00002   1.57123
    D3       -1.57024  -0.00006   0.00000  -0.00036  -0.00036  -1.57060
    D4       -3.14144  -0.00030   0.00000  -0.00038  -0.00038   3.14136
    D5        2.19684  -0.00315   0.00000   0.00006   0.00010   2.19694
    D6       -2.03906  -0.00165   0.00000  -0.00040  -0.00038  -2.03944
    D7        2.04729   0.00150   0.00000  -0.00046  -0.00048   2.04681
         Item               Value     Threshold  Converged?
 Maximum Force            0.002908     0.000450     NO 
 RMS     Force            0.000946     0.000300     NO 
 Maximum Displacement     0.015788     0.001800     NO 
 RMS     Displacement     0.006468     0.001200     NO 
 Predicted change in Energy=-5.275476D-05
 GradGradGradGradGradGradGradGradGradGradGradGradGradGradGradGradGradGrad

                          Input orientation:                          
 ---------------------------------------------------------------------
[...]
    A3        2.09208   0.00010  -0.00010   0.00059   0.00049   2.09257
    A4        3.13929   0.00018   0.00000   0.00000   0.00000   3.13929
    A5        1.57185  -0.00008   0.00012   0.00004   0.00016   1.57201
    A6        1.56991   0.00003   0.00014   0.00005   0.00020   1.57011
    A7        1.57204  -0.00010  -0.00012  -0.00004  -0.00016   1.57188
    A8        1.57052   0.00006  -0.00014  -0.00005  -0.00020   1.57032
    A9        2.09456  -0.00010  -0.00037  -0.00028  -0.00066   2.09390
   A10        3.13977   0.00007   0.00021   0.00015   0.00036   3.14013
   A11        2.09655   0.00000   0.00048  -0.00031   0.00017   2.09672
    D1       -1.05652  -0.00000  -0.00031   0.00016  -0.00015  -1.05667
    D2        1.57032   0.00001   0.00015   0.00014   0.00028   1.57060
    D3       -1.57129   0.00001   0.00014   0.00014   0.00028  -1.57101
    D4        3.14158   0.00000  -0.00000  -0.00000  -0.00000   3.14158
    D5        3.13961   0.00016  -0.00000   0.00000   0.00000   3.13961
    D6       -1.57151   0.00007  -0.00022  -0.00008  -0.00030  -1.57180
    D7        1.57207  -0.00008  -0.00022  -0.00008  -0.00030   1.57178
         Item               Value     Threshold  Converged?
 Maximum Force            0.000224     0.000450     YES
 RMS     Force            0.000063     0.000300     YES
 Maximum Displacement     0.000830     0.001800     YES
 RMS     Displacement     0.000271     0.001200     YES
 Predicted change in Energy=-1.457983D-07
 Optimization completed.
    -- Stationary point found.
                           ----------------------------
                           !   Optimized Parameters   !
                           ! (Angstroms and Degrees)  !
 --------------------------                            --------------------------
 ! Name  Definition              Value          Derivative Info.                !
 --------------------------------------------------------------------------------
 ! R1    R(1,2)                  1.5687         -DE/DX =    0.0                 !
 ! R2    R(1,3)                  1.6097         -DE/DX =   -0.0001              !
 ! R3    R(1,4)                  1.6088         -DE/DX =    0.0002              !
 ! R4    R(1,5)                  1.5681         -DE/DX =    0.0                 !
 ! R5    R(1,6)                  1.5686         -DE/DX =    0.0                 !
 ! A1    A(2,1,3)               89.9462         -DE/DX =    0.0                 !
 ! A2    A(2,1,4)               89.9888         -DE/DX =    0.0                 !
 ! A3    A(2,1,5)              119.8674         -DE/DX =    0.0001              !
 ! A4    A(3,1,4)              179.868          -DE/DX =    0.0002              !
 ! A5    A(3,1,5)               90.0606         -DE/DX =   -0.0001              !
 ! A6    A(3,1,6)               89.9492         -DE/DX =    0.0                 !
 ! A7    A(4,1,5)               90.0714         -DE/DX =   -0.0001              !
 ! A8    A(4,1,6)               89.984          -DE/DX =    0.0001              !
 ! A9    A(5,1,6)              120.0092         -DE/DX =   -0.0001              !
 ! A10   L(2,1,6,3,-1)         179.8954         -DE/DX =    0.0001              !
 ! A11   L(2,1,6,3,-2)         120.1235         -DE/DX =    0.0                 !
 ! D1    D(2,1,4,3)            -60.5341         -DE/DX =    0.0                 !
 ! D2    D(2,1,5,3)             89.9728         -DE/DX =    0.0                 !
 ! D3    D(2,1,5,4)            -90.0282         -DE/DX =    0.0                 !
 ! D4    D(3,1,5,4)            179.9991         -DE/DX =    0.0                 !
 ! D5    D(3,1,6,4)            179.8861         -DE/DX =    0.0002              !
 ! D6    D(3,1,6,5)            -90.0406         -DE/DX =    0.0001              !
 ! D7    D(4,1,6,5)             90.0732         -DE/DX =   -0.0001              !
 --------------------------------------------------------------------------------
 Summary of Optimized Potential Surface Scan (add -840.0 to energies):
                           1         2         3         4         5
     Eigenvalues --    -0.86559  -0.86547  -0.86517  -0.86472  -0.86417
           R1           1.60949   1.60938   1.60920   1.60883   1.60823
           R2           1.56830   1.56897   1.57022   1.57177   1.57361
           R3           1.56830   1.56909   1.57036   1.57185   1.57359
           R4           1.56830   1.56718   1.56530   1.56357   1.56193
           R5           1.60949   1.60940   1.60925   1.60891   1.60834
           A1          90.04215  89.80688  89.56665  89.29545  89.03340
           A2          89.97910  89.74778  89.52781  89.28261  89.05925
           A3          89.97564  90.47261  91.00821  91.67117  92.37089
           A4         119.86812 122.86817 125.86785 128.86790 131.86785
           A5         119.86776 118.33255 116.85450 115.45208 114.05750
           A6          90.05450  89.79890  89.56280  89.28347  89.01385
           A7         120.26411 118.79928 117.27765 115.68002 114.07465
           A8          89.97453  89.73827  89.50207  89.26250  89.03265
           A9          89.97446  90.47730  91.01471  91.66138  92.36411
           A10        180.09665 179.60578 179.12945 178.57892 178.04725
           A11        180.00203 179.13336 178.17333 176.98552 175.68614
           D1         -90.03661 -89.60709 -89.12379 -88.51665 -87.85817
           D2          90.03462  90.03541  90.02474  90.01503  89.99963
           D3         -89.96159 -89.97198 -89.98858 -90.00745 -90.02868
           D4         180.00379-180.00739 179.98668-180.02248-180.02831
           D5         119.86811 122.86988 125.87531 128.88718 131.90515
           D6        -119.86775-118.33191-116.85121-115.44266-114.03849
           D7         120.26413 118.79821 117.27347 115.67016 114.05636
                           6         7         8         9        10
     Eigenvalues --    -0.86353  -0.86283  -0.86212  -0.86144  -0.86083
           R1           1.60739   1.60635   1.60497   1.60375   1.60211
           R2           1.57568   1.57794   1.58051   1.58327   1.58619
           R3           1.57557   1.57783   1.58057   1.58328   1.58621
           R4           1.56031   1.55872   1.55703   1.55551   1.55404
           R5           1.60755   1.60653   1.60521   1.60344   1.60161
           A1          88.79066  88.57746  88.32713  88.09636  87.89622
           A2          88.82752  88.58162  88.31268  88.08271  87.88159
           A3          93.14400  94.00348  95.02327  96.11828  97.39886
           A4         134.86790 137.86786 140.86789 143.86807 146.86783
           A5         112.58381 111.02116 109.44975 108.00051 106.54136
           A6          88.76871  88.55152  88.31698  88.12594  87.90950
           A7         112.54828 111.11096 109.68236 108.13140 106.59081
           A8          88.79390  88.54530  88.32095  88.10271  87.88709
           A9          93.13783  93.99242  95.02457  96.14408  97.41453
           A10        177.55936 177.12898 176.64411 176.22231 175.80571
           A11        174.21115 172.53654 170.52778 168.33193 165.78962
           D1         -87.12498 -86.30819 -85.26870 -84.13294 -82.88378
           D2          89.99734  90.01346  89.99773  89.98290  89.99721
           D3         -90.03535 -90.02423 -90.00279 -89.98248 -89.98826
           D4        -180.03269-180.03770 179.99947-179.96538-179.98547
           D5         134.93033 137.96347 141.00695 144.05890 147.12814
           D6        -112.55199-110.97346-109.37961-107.90592-106.41240
           D7         112.51768 111.06307 109.61344 108.03518 106.45946
                          11        12        13        14        15
     Eigenvalues --    -0.86035  -0.86004  -0.85995  -0.86013  -0.86059
           R1           1.59967   1.59784   1.59512   1.59267   1.58918
           R2           1.58905   1.59249   1.59581   1.59916   1.60243
           R3           1.58905   1.59251   1.59586   1.59923   1.60248
           R4           1.55242   1.55137   1.55010   1.54921   1.54899
           R5           1.60084   1.59757   1.59529   1.59253   1.58951
           A1          87.71972  87.54599  87.44653  87.34977  87.39696
           A2          87.74667  87.55433  87.45347  87.36169  87.41323
           A3          98.87191 100.46320 102.32557 104.52433 106.82503
           A4         149.86784 152.86796 155.86788 158.86790 161.86783
           A5         105.06242 103.57054 102.07151 100.57552  99.07169
           A6          87.68475  87.56871  87.43080  87.36990  87.35427
           A7         105.06967 103.56150 102.06061 100.55657  99.06044
           A8          87.68106  87.56252  87.43733  87.38093  87.36776
           A9          98.82867 100.46913 102.32964 104.50882 106.86221
           A10        175.40447 175.11470 174.87733 174.71967 174.75123
           A11        162.90180 159.63954 155.87477 151.44091 146.71246
           D1         -81.54038 -79.78606 -77.97415 -75.66376 -73.49832
           D2          90.01747  89.98769  90.00546  89.98731  90.01344
           D3         -90.04684 -89.99473 -90.01034 -89.99492 -90.02722
           D4         179.93569-179.98242 179.98420-179.98223 179.95934
           D5         150.21818 153.30031 156.41195 159.52304 162.64684
           D6        -104.88751-103.35500-101.79890-100.24686 -98.68043
           D7         104.89431 103.34469 101.78915 100.23010  98.67272
                          16        17        18        19        20
     Eigenvalues --    -0.86133  -0.86234  -0.86346  -0.86452  -0.86530
           R1           1.58656   1.58216   1.57912   1.57530   1.57172
           R2           1.60525   1.60732   1.60904   1.60954   1.61021
           R3           1.60510   1.60770   1.60843   1.60900   1.60865
           R4           1.54950   1.55080   1.55335   1.55718   1.56225
           R5           1.58599   1.58256   1.57911   1.57544   1.57166
           A1          87.43152  87.73487  88.09937  88.62431  89.23052
           A2          87.44312  87.73365  88.13664  88.64260  89.29095
           A3         109.51585 112.10259 114.66570 116.72951 118.40956
           A4         164.86786 167.86791 170.86798 173.86800 176.86788
           A5          97.56617  96.07735  94.56340  93.05087  91.49766
           A6          87.52863  87.70471  88.06163  88.59798  89.19280
           A7          97.56571  96.05471  94.56850  93.08107  91.63444
           A8          87.53673  87.69595  88.09402  88.61597  89.29448
           A9         109.41928 112.18284 114.61797 116.78412 118.64355
           A10        174.96016 175.43958 176.16099 177.22230 178.42332
           A11        141.37987 135.93826 130.85675 126.55319 122.96663
           D1         -70.30750 -68.14193 -65.70268 -63.55263 -61.83746
           D2          89.94933  90.01940  90.00233  89.99553  89.93517
           D3         -89.96157 -90.00888 -90.04580 -90.03123 -90.07789
           D4        -179.91090 179.97172 179.95186 179.97324 179.98694
           D5         165.69064 168.77051 171.71504 174.53693 177.25731
           D6         -97.15351 -95.62875 -94.13227 -92.71009 -91.26565
           D7          97.15585  95.60074  94.15269  92.75298  91.47703
                          21
     Eigenvalues --    -0.86561
           R1           1.56867
           R2           1.60974
           R3           1.60879
           R4           1.56808
           R5           1.56860
           A1          89.94622
           A2          89.98884
           A3         119.86738
           A4         179.86798
           A5          90.06059
           A6          89.94920
           A7          90.07142
           A8          89.98397
           A9         120.00918
           A10        179.89542
           A11        120.12351
           D1         -60.53406
           D2          89.97277
           D3         -90.02815
           D4         179.99908
           D5         179.88615
           D6         -90.04063
           D7          90.07322
 GradGradGradGradGradGradGradGradGradGradGradGradGradGradGradGradGradGrad

                          Input orientation:                          
 ---------------------------------------------------------------------
 Center     Atomic      Atomic             Coordinates (Angstroms)
 Number     Number       Type             X           Y           Z
 ---------------------------------------------------------------------
      1         15           0       -0.866257   -0.072179   -0.000315
      2          9           0       -0.473996   -0.749240    1.359261
      3          9           0        0.528235    0.731967   -0.000447
      4          9           0       -2.258073   -0.879061   -0.000212
      5          9           0       -1.651027    1.285393    0.001178
      6          9           0       -0.473890   -0.750033   -1.359380
 ---------------------------------------------------------------------
                    Distance matrix (angstroms):
                    1          2          3          4          5
     1  P    0.000000
     2  F    1.568670   0.000000
     3  F    1.609739   2.246607   0.000000
     4  F    1.608791   2.246765   3.218527   0.000000
     5  F    1.568078   2.714686   2.248436   2.247969   0.000000
     6  F    1.568596   2.718641   2.246614   2.246618   2.716565
                    6
     6  F    0.000000
 Symmetry turned off by external request.
 Stoichiometry    F5P
 Framework group  C1[X(F5P)]
 Deg. of freedom    12
 Full point group                 C1      NOp   1
 Rotational constants (GHZ):           3.6044437           3.0012656           2.9970711

 **********************************************************************

            Population analysis using the SCF Density.

 **********************************************************************

 Alpha  occ. eigenvalues --  -77.36045 -24.75889 -24.75863 -24.75852 -24.71864
 Alpha  occ. eigenvalues --  -24.71830  -6.82788  -4.99157  -4.99156  -4.98924
 Alpha  occ. eigenvalues --   -1.34944  -1.28910  -1.28888  -1.25400  -1.22439
 Alpha  occ. eigenvalues --   -0.73554  -0.62912  -0.62903  -0.61791  -0.55188
 Alpha  occ. eigenvalues --   -0.55178  -0.53308  -0.53292  -0.51460  -0.49306
 Alpha  occ. eigenvalues --   -0.47662  -0.46156  -0.46155  -0.43964  -0.43937
 Alpha virt. eigenvalues --   -0.04644   0.02885   0.02899   0.03224   0.04740
 Alpha virt. eigenvalues --    0.06949   0.07011   0.17464   0.18067   0.19089
 Alpha virt. eigenvalues --    0.19095   0.20817   0.20822   0.22403   0.23732
 Alpha virt. eigenvalues --    0.24692   0.24696   0.28417   0.28419   0.28694
 Alpha virt. eigenvalues --    0.28809   0.28990   0.32185   0.32230   0.38567
 Alpha virt. eigenvalues --    0.38569   0.40909   0.43106   0.51735   0.51766
 Alpha virt. eigenvalues --    0.54754   0.54757   0.57137   0.77841   0.79716
 Alpha virt. eigenvalues --    0.79846   0.98191   1.18849   1.18885   1.22491
 Alpha virt. eigenvalues --    1.23495   1.23499   1.26914   1.27648   1.32458
 Alpha virt. eigenvalues --    1.32496   1.36049   1.36099   1.42020   1.42112
 Alpha virt. eigenvalues --    1.42521   1.50418   1.63506   1.63566   1.70653
 Alpha virt. eigenvalues --    1.92372   1.98477   2.02561   2.02708   2.12165
 Alpha virt. eigenvalues --    3.65620   3.67681   3.67704   3.69444   3.70058
 Alpha virt. eigenvalues --    3.70079   3.70230   3.70255   3.70494   3.70508
 Alpha virt. eigenvalues --    3.73703   3.73789   3.73792   3.76652   3.76656
 Alpha virt. eigenvalues --    3.79667   3.85039   3.85276   3.85288   3.87312
 Alpha virt. eigenvalues --    3.87352   4.10333   4.21676   4.21736   4.29158
 Alpha virt. eigenvalues --    6.13373   6.13401   6.18018   6.21870   6.22034
 Alpha virt. eigenvalues --    6.22071   6.22095   6.25355   6.25418   6.34546
 Alpha virt. eigenvalues --    6.34599   6.35379   6.35412   6.40611   6.45502
 Alpha virt. eigenvalues --    7.20155  13.77014  13.77084  13.90680  66.69865
 Alpha virt. eigenvalues --   66.73278  66.73334  66.75564  66.79848 163.14426
          Condensed to atoms (all electrons):
               1          2          3          4          5          6
     1  P   12.972389   0.208393   0.192707   0.193099   0.208571   0.208505
     2  F    0.208393   9.028625  -0.021202  -0.021147  -0.005291  -0.005427
     3  F    0.192707  -0.021202   9.095643   0.008208  -0.021079  -0.021210
     4  F    0.193099  -0.021147   0.008208   9.094486  -0.021098  -0.021169
     5  F    0.208571  -0.005291  -0.021079  -0.021098   9.027985  -0.005389
     6  F    0.208505  -0.005427  -0.021210  -0.021169  -0.005389   9.027930
 Mulliken charges:
               1
     1  P    1.016335
     2  F   -0.183950
     3  F   -0.233068
     4  F   -0.232379
     5  F   -0.183699
     6  F   -0.183239
 Sum of Mulliken charges =  -0.00000
 Mulliken charges with hydrogens summed into heavy atoms:
               1
     1  P    1.016335
     2  F   -0.183950
     3  F   -0.233068
     4  F   -0.232379
     5  F   -0.183699
     6  F   -0.183239
 Electronic spatial extent (au):  <R**2>=            652.9957
 Charge=             -0.0000 electrons
 Dipole moment (field-independent basis, Debye):
    X=             -0.0104    Y=              0.0014    Z=             -0.0042  Tot=              0.0113
 Quadrupole moment (field-independent basis, Debye-Ang):
   XX=            -41.1800   YY=            -38.8788   ZZ=            -37.7359
   XY=             -2.0146   XZ=              0.0053   YZ=             -0.0020
 Traceless Quadrupole moment (field-independent basis, Debye-Ang):
   XX=             -1.9151   YY=              0.3861   ZZ=              1.5290
   XY=             -2.0146   XZ=              0.0053   YZ=             -0.0020
 Octapole moment (field-independent basis, Debye-Ang**2):
  XXX=            107.3721  YYY=              6.2816  ZZZ=             -0.0008  XYY=             35.1953
  XXY=              5.7408  XXZ=             -0.0040  XZZ=             31.0123  YZZ=              5.5921
  YYZ=              0.0001  XYZ=              0.0043
 Hexadecapole moment (field-independent basis, Debye-Ang**3):
 XXXX=           -370.7961 YYYY=           -152.7516 ZZZZ=           -140.4317 XXXY=            -26.5766
 XXXZ=              0.0234 YYYX=            -17.3610 YYYZ=             -0.0384 ZZZX=              0.0223
 ZZZY=             -0.0384 XXYY=            -89.7285 XXZZ=            -77.5418 YYZZ=            -49.1520
 XXYZ=             -0.0182 YYXZ=              0.0077 ZZXY=             -7.8334
 N-N= 4.005255604631D+02 E-N=-2.802879482621D+03  KE= 8.390840802796D+02
 1\1\GINC-CN032\Scan\RB3LYP\6-311++G(d,p)\F5P1\18CE90J01\17-Dec-2020\0\
 \# opt=(modredundant,maxcycle=1600) b3lyp/6-311++g(d,p) scrf=(cpcm,sol
 vent=water) nosymm scf=maxcycle=800\\pf5scn\\0,1\P,-0.8662571328,-0.07
 21793601,-0.0003148554\F,-0.4739955706,-0.7492403276,1.3592607007\F,0.
 5282348699,0.7319667005,-0.0004468233\F,-2.2580725864,-0.8790608129,-0
 .000212466\F,-1.6510269358,1.2853926121,0.0011781263\F,-0.4738902842,-
 0.750032772,-1.3593796822\\Version=EM64L-G16RevB.01\HF=-840.8655855,-8
 40.865469,-840.8651666,-840.8647241,-840.8641696,-840.8635281,-840.862
 8327,-840.8621231,-840.8614373,-840.8608281,-840.8603497,-840.8600432,
 -840.8599526,-840.8601312,-840.8605925,-840.8613348,-840.8623357,-840.
 8634633,-840.8645245,-840.8652973,-840.86561\RMSD=1.811e-09,9.092e-09,
 3.714e-09,5.605e-09,6.616e-09,7.231e-09,7.905e-09,3.760e-09,2.679e-09,
 4.761e-09,5.231e-09,2.145e-09,3.187e-09,4.628e-09,7.331e-09,5.449e-09,
 9.583e-09,9.035e-09,6.199e-09,5.443e-09,4.386e-09\PG=C01 [X(F5P1)]\\@


 THE MORE ACCURATE THE CALCULATIONS BECOME, THE MORE THE CONCEPTS
 TEND TO VANISH INTO THIN AIR.
     -- R.S. MULLIKEN, J.C.P. 43,S2(1965)
 Job cpu time:       0 days  5 hours 54 minutes  4.4 seconds.
 Elapsed time:       0 days  0 hours 12 minutes 57.8 seconds.
 File lengths (MBytes):  RWF=     29 Int=      0 D2E=      0 Chk=      5 Scr=      1
 Normal termination of Gaussian 16 at Thu Dec 17 22:51:48 2020.
