     320
 i =        1, E =     -3366.4506531372
 Al         2.0879749715        6.2978052067        1.0147602083
 Al         4.7879058780        2.0992683631        4.0115544248
 Al         4.8564274252        6.2978051685        1.0072351323
 Al         3.3603274029        6.2978055068        5.9989567917
 Al         1.9912677976        0.6308975926        4.9298529742
 Al         0.5758204270        4.8617305639        6.9409244010
  O         4.8313421842        6.2978051935        7.0387660204
  O         3.3621435176        2.0992685516        5.1537953587
  O         1.9498551192        6.2978051964        7.1601614406
  O         0.6846248027        2.0992686337        5.0480435411
  O         4.8717647983        3.4076024231        7.2387169590
  O         3.3157557099        7.7026951801        4.9421682562
  O         1.9159030165        3.4084159186        6.8676457472
  O         0.7146070891        7.6938096259        5.1287370696
 Al         3.3932328840        2.0992684310        7.0365636409
 Al         0.6933032690        6.2978055130        4.0397695311
 Al         0.6247824951        2.0992684398        7.0440964254
 Al         2.1208810819        2.0992683801        2.0523667849
 Al         3.4899484515        4.8294262784        3.1214704638
 Al         3.4899483050        7.7661842890        3.1214708184
 Al         1.9912677414        3.5676476205        4.9298530595
 Al         4.9053886073        0.6631934436        1.1103982536
 Al         4.9053885860        3.5353433502        1.1103982503
 Al         0.5758204753        7.7338800493        6.9409240869
  O         0.6498738553        2.0992684289        1.0125566138
  O         2.1190656184        6.2978051587        2.8975353587
  O         3.5313539917        2.0992684272        0.8911615638
  O         4.7965835827        6.2978051617        3.0032794207
  O         0.6094514969        7.6061392407        0.8126066596
  O         0.6094514927        4.9894711683        0.8126066551
  O         4.8717648062        0.7909345363        7.2387170046
  O         2.1654535496        3.5041579998        3.1091547228
  O         2.1654535483        0.6943790592        3.1091545845
  O         3.3157559193        4.8929155185        4.9421682742
  O         3.5653058682        7.6069528868        1.1836775354
  O         3.5653058998        4.9886575282        1.1836775391
  O         1.9159030513        0.7901212185        6.8676458264
  O         4.7666103096        3.4952726221        2.9225859374
  O         4.7666103304        0.7032642672        2.9225858773
  O         0.7146068488        4.9018011432        5.1287370757
 Al         7.6504804850        6.2978052036        1.0147602043
 Al        10.3504114008        2.0992683625        4.0115544139
 Al        10.4189329542        6.2978051640        1.0072351333
 Al         8.9228329258        6.2978055076        5.9989567950
 Al         7.5537733135        0.6308975887        4.9298529658
 Al         6.1383259487        4.8617305635        6.9409244017
  O        10.3938477139        6.2978051892        7.0387660216
  O         8.9246490481        2.0992685530        5.1537953590
  O         7.5123606469        6.2978051972        7.1601614394
  O         6.2471303265        2.0992686359        5.0480435359
  O        10.4342703283        3.4076024265        7.2387169609
  O         8.8782612383        7.7026951798        4.9421682590
  O         7.4784085475        3.4084159190        6.8676457459
  O         6.2771126180        7.6938096269        5.1287370677
 Al         8.9557383897        2.0992684293        7.0365636383
 Al         6.2558087881        6.2978055116        4.0397695245
 Al         6.1872880085        2.0992684415        7.0440964241
 Al         7.6833865961        2.0992683754        2.0523667812
 Al         9.0524539759        4.8294262794        3.1214704602
 Al         9.0524538310        7.7661842953        3.1214708129
 Al         7.5537732616        3.5676476169        4.9298530555
 Al        10.4678941447        0.6631934405        1.1103982502
 Al        10.4678941243        3.5353433499        1.1103982470
 Al         6.1383259965        7.7338800358        6.9409240883
  O         6.2123793891        2.0992684309        1.0125566147
  O         7.6815711460        6.2978051590        2.8975353601
  O         9.0938595181        2.0992684299        0.8911615645
  O        10.3590891056        6.2978051619        3.0032794140
  O         6.1719570240        7.6061392342        0.8126066606
  O         6.1719570256        4.9894711666        0.8126066585
  O        10.4342703354        0.7909345330        7.2387170062
  O         7.7279590748        3.5041579993        3.1091547186
  O         7.7279590767        0.6943790585        3.1091545856
  O         8.8782614487        4.8929155195        4.9421682739
  O         9.1278113952        7.6069528886        1.1836775359
  O         9.1278114259        4.9886575270        1.1836775405
  O         7.4784085819        0.7901212191        6.8676458252
  O        10.3291158349        3.4952726233        2.9225859368
  O        10.3291158623        0.7032642657        2.9225858766
  O         6.2771123793        4.9018011456        5.1287370718
 Al         2.0879749291       14.6948788308        1.0147602078
 Al         4.7879058461       10.4963419931        4.0115544343
 Al         4.8564273856       14.6948788221        1.0072351343
 Al         3.3603273494       14.6948791306        5.9989567894
 Al         1.9912677535        9.0279711393        4.9298529806
 Al         0.5758203789       13.2588041887        6.9409244008
  O         4.8313421368       14.6948787977        7.0387660169
  O         3.3621434736       10.4963421602        5.1537953609
  O         1.9498550732       14.6948788052        7.1601614372
  O         0.6846247595       10.4963422405        5.0480435422
  O         4.8717647532       11.8046760306        7.2387169579
  O         3.3157556582       16.0997687633        4.9421682559
  O         1.9159029714       11.8054895252        6.8676457472
  O         0.7146070563       16.0908832098        5.1287370726
 Al         3.3932328357       10.4963420425        7.0365636521
 Al         0.6933032344       14.6948791393        4.0397695299
 Al         0.6247824500       10.4963420848        7.0440964347
 Al         2.1208810274       10.4963420123        2.0523667904
 Al         3.4899484083       13.2264999154        3.1214704639
 Al         3.4899482618       16.1632578434        3.1214708087
 Al         1.9912676954       11.9647212558        4.9298530628
 Al         4.9053885764        9.0602670327        1.1103982527
 Al         4.9053885468       11.9324169884        1.1103982480
 Al         0.5758204438       16.1309536214        6.9409240894
  O         0.6498738106       10.4963420370        1.0125566132
  O         2.1190655732       14.6948787701        2.8975353614
  O         3.5313539453       10.4963420365        0.8911615665
  O         4.7965835360       14.6948787696        3.0032794218
  O         0.6094514389       16.0032128300        0.8126066536
  O         0.6094514485       13.3865447743        0.8126066574
  O         4.8717647529        9.1880081275        7.2387170059
  O         2.1654535048       11.9012316087        3.1091547222
  O         2.1654534931        9.0914526412        3.1091545855
  O         3.3157558752       13.2899891268        4.9421682727
  O         3.5653058310       16.0040264783        1.1836775364
  O         3.5653058524       13.3857311358        1.1836775374
  O         1.9159030133        9.1871948053        6.8676458277
  O         4.7666102639       11.8923462308        2.9225859357
  O         4.7666102988        9.1003378519        2.9225858796
  O         0.7146068049       13.2988747532        5.1287370734
 Al         7.6504804444       14.6948788297        1.0147602078
 Al        10.3504113628       10.4963419918        4.0115544243
 Al        10.4189329104       14.6948788216        1.0072351297
 Al         8.9228328682       14.6948791300        5.9989567862
 Al         7.5537732766        9.0279711443        4.9298529723
 Al         6.1383259063       13.2588041904        6.9409244005
  O        10.3938476712       14.6948787980        7.0387660219
  O         8.9246490017       10.4963421575        5.1537953599
  O         7.5123606030       14.6948788032        7.1601614364
  O         6.2471302825       10.4963422410        5.0480435362
  O        10.4342702861       11.8046760311        7.2387169606
  O         8.8782611861       16.0997687642        4.9421682556
  O         7.4784084988       11.8054895243        6.8676457465
  O         6.2771125861       16.0908832119        5.1287370703
 Al         8.9557383472       10.4963420434        7.0365636500
 Al         6.2558087591       14.6948791401        4.0397695237
 Al         6.1872879655       10.4963420872        7.0440964339
 Al         7.6833865408       10.4963420084        2.0523667870
 Al         9.0524539258       13.2264999167        3.1214704655
 Al         9.0524537778       16.1632578514        3.1214708087
 Al         7.5537732180       11.9647212532        4.9298530595
 Al        10.4678941025        9.0602670216        1.1103982543
 Al        10.4678940763       11.9324169881        1.1103982446
 Al         6.1383259701       16.1309536201        6.9409240868
  O         6.2123793435       10.4963420374        1.0125566159
  O         7.6815710987       14.6948787677        2.8975353599
  O         9.0938594745       10.4963420380        0.8911615645
  O        10.3590890639       14.6948787692        3.0032794130
  O         6.1719569702       16.0032128280        0.8126066551
  O         6.1719569777       13.3865447759        0.8126066588
  O        10.4342702798        9.1880081235        7.2387170065
  O         7.7279590293       11.9012316098        3.1091547195
  O         7.7279590210        9.0914526421        3.1091545840
  O         8.8782614046       13.2899891276        4.9421682719
  O         9.1278113593       16.0040264780        1.1836775372
  O         9.1278113814       13.3857311347        1.1836775382
  O         7.4784085435        9.1871948045        6.8676458286
  O        10.3291157909       11.8923462311        2.9225859359
  O        10.3291158278        9.1003378524        2.9225858799
  O         6.2771123328       13.2988747531        5.1287370723
 Al         2.0066776362        6.2978052802        9.0660832497
 Al         4.7066085254        2.0992684246       12.0628774955
 Al         4.7751300606        6.2978052499        9.0585581693
 Al         3.2790300462        6.2978055682       14.0502798400
 Al         1.9099704422        0.6308976531       12.9811760389
 Al         0.4945230533        4.8617306095       14.9922474493
  O         4.7500448276        6.2978052567       15.0900890532
  O         3.2808461634        2.0992686209       13.2051183943
  O         1.8685577652        6.2978052612       15.2114844759
  O         0.6033274476        2.0992687021       13.0993665763
  O         4.7904674391        3.4076024914       15.2900400028
  O         3.2344583543        7.7026952441       12.9934912879
  O         1.8346056610        3.4084159801       14.9189687718
  O         0.6333097347        7.6938096916       13.1800601005
 Al         3.3119355447        2.0992684929       15.0878866907
 Al         0.6120059113        6.2978055790       12.0910925880
 Al         0.5434851113        2.0992684966       15.0954194739
 Al         2.0395837260        2.0992684507       10.1036898402
 Al         3.4086511016        4.8294263529       11.1727935178
 Al         3.4086509503        7.7661843593       11.1727938707
 Al         1.9099703871        3.5676476866       12.9811761220
 Al         4.8240912451        0.6631935133        9.1617213052
 Al         4.8240912315        3.5353434159        9.1617212865
 Al         0.4945231157        7.7338801119       14.9922471212
  O         0.5685765003        2.0992684972        9.0638796538
  O         2.0377682624        6.2978052270       10.9488583900
  O         3.4500566363        2.0992684954        8.9424846070
  O         4.7152862274        6.2978052245       11.0546024553
  O         0.5281541390        7.6061393030        8.8639297035
  O         0.5281541385        4.9894712353        8.8639297024
  O         4.7904674490        0.7909346016       15.2900400541
  O         2.0841561930        3.5041580667       11.1604777564
  O         2.0841561951        0.6943791228       11.1604776171
  O         3.2344585666        4.8929155852       12.9934913061
  O         3.4840085100        7.6069529534        9.2350005618
  O         3.4840085421        4.9886575910        9.2350005655
  O         1.8346056980        0.7901212857       14.9189688529
  O         4.6853129534        3.4952726901       10.9739089701
  O         4.6853129749        0.7032643340       10.9739089101
  O         0.6333094916        4.9018012101       13.1800601048
 Al         7.5691831518        6.2978052797        9.0660832485
 Al        10.2691140457        2.0992684254       12.0628774873
 Al        10.3376355760        6.2978052499        9.0585581622
 Al         8.8415355679        6.2978055677       14.0502798441
 Al         7.4724759646        0.6308976563       12.9811760359
 Al         6.0570285958        4.8617306166       14.9922474531
  O        10.3125503582        6.2978052586       15.0900890581
  O         8.8433516921        2.0992686197       13.2051183911
  O         7.4310632936        6.2978052623       15.2114844758
  O         6.1658329715        2.0992687015       13.0993665689
  O        10.3529729724        3.4076024940       15.2900400026
  O         8.7969638834        7.7026952458       12.9934912861
  O         7.3971111892        3.4084159821       14.9189687714
  O         6.1958152629        7.6938096903       13.1800600994
 Al         8.8744410543        2.0992684926       15.0878866942
 Al         6.1745114323        6.2978055789       12.0910925810
 Al         6.1059906462        2.0992684975       15.0954194774
 Al         7.6020892401        2.0992684509       10.1036898374
 Al         8.9711566214        4.8294263505       11.1727935166
 Al         8.9711564719        7.7661843631       11.1727938688
 Al         7.4724759070        3.5676476825       12.9811761189
 Al        10.3865967732        0.6631935117        9.1617213026
 Al        10.3865967572        3.5353434157        9.1617212808
 Al         6.0570286511        7.7338801007       14.9922471244
  O         6.1310820323        2.0992684972        9.0638796564
  O         7.6002737914        6.2978052256       10.9488583908
  O         9.0125621650        2.0992684962        8.9424846063
  O        10.2777917531        6.2978052265       11.0546024475
  O         6.0906596706        7.6061392989        8.8639297028
  O         6.0906596676        4.9894712371        8.8639297048
  O        10.3529729818        0.7909346002       15.2900400574
  O         7.6466617207        3.5041580670       11.1604777543
  O         7.6466617204        0.6943791246       11.1604776180
  O         8.7969640937        4.8929155843       12.9934913051
  O         9.0465140396        7.6069529518        9.2350005623
  O         9.0465140715        4.9886575913        9.2350005652
  O         7.3971112262        0.7901212874       14.9189688532
  O        10.2478184796        3.4952726900       10.9739089692
  O        10.2478185050        0.7032643333       10.9739089089
  O         6.1958150204        4.9018012109       13.1800601049
 Al         2.0066775930       14.6948788847        9.0660832577
 Al         4.7066084919       10.4963420577       12.0628774912
 Al         4.7751300185       14.6948788874        9.0585581745
 Al         3.2790299919       14.6948791984       14.0502798390
 Al         1.9099704018        9.0279712087       12.9811760249
 Al         0.4945230041       13.2588042532       14.9922474464
  O         4.7500447813       14.6948788663       15.0900890545
  O         3.2808461181       10.4963422289       13.2051183929
  O         1.8685577208       14.6948788696       15.2114844739
  O         0.6033274021       10.4963423071       13.0993665743
  O         4.7904673960       11.8046760983       15.2900400028
  O         3.2344583028       16.0997688296       12.9934912895
  O         1.8346056179       11.8054895906       14.9189687742
  O         0.6333097025       16.0908832770       13.1800601058
 Al         3.3119355031       10.4963421151       15.0878866855
 Al         0.6120058775       14.6948792077       12.0910925917
 Al         0.5434850655       10.4963421526       15.0954194693
 Al         2.0395836723       10.4963420758       10.1036898373
 Al         3.4086510552       13.2264999782       11.1727935170
 Al         3.4086509032       16.1632579066       11.1727938793
 Al         1.9099703405       11.9647213239       12.9811761173
 Al         4.8240912194        9.0602671018        9.1617213036
 Al         4.8240911855       11.9324170433        9.1617212858
 Al         0.4945230702       16.1309536973       14.9922471281
  O         0.5685764576       10.4963421018        9.0638796545
  O         2.0377682159       14.6948788328       10.9488583940
  O         3.4500565908       10.4963421024        8.9424846064
  O         4.7152861838       14.6948788330       11.0546024566
  O         0.5281540836       16.0032128948        8.8639296984
  O         0.5281540895       13.3865448438        8.8639297036
  O         4.7904673958        9.1880081981       15.2900400548
  O         2.0841561511       11.9012316730       11.1604777558
  O         2.0841561381        9.0914527066       11.1604776175
  O         3.2344585204       13.2899891928       12.9934913063
  O         3.4840084738       16.0040265429        9.2350005645
  O         3.4840084988       13.3857311989        9.2350005674
  O         1.8346056590        9.1871948751       14.9189688560
  O         4.6853129069       11.8923462969       10.9739089694
  O         4.6853129450        9.1003379182       10.9739089117
  O         0.6333094484       13.2988748194       13.1800601049
 Al         7.5691831119       14.6948788850        9.0660832599
 Al        10.2691140049       10.4963420587       12.0628774835
 Al        10.3376355321       14.6948788839        9.0585581717
 Al         8.8415355142       14.6948792026       14.0502798431
 Al         7.4724759258        9.0279712148       12.9811760233
 Al         6.0570285510       13.2588042539       14.9922474487
  O        10.3125503135       14.6948788631       15.0900890580
  O         8.8433516491       10.4963422251       13.2051183928
  O         7.4310632484       14.6948788687       15.2114844753
  O         6.1658329264       10.4963423090       13.0993665684
  O        10.3529729270       11.8046760995       15.2900400042
  O         8.7969638292       16.0997688296       12.9934912890
  O         7.3971111462       11.8054895897       14.9189687741
  O         6.1958152295       16.0908832764       13.1800601032
 Al         8.8744410095       10.4963421132       15.0878866840
 Al         6.1745114034       14.6948792028       12.0910925854
 Al         6.1059905965       10.4963421526       15.0954194754
 Al         7.6020891873       10.4963420774       10.1036898359
 Al         8.9711565774       13.2264999778       11.1727935148
 Al         8.9711564258       16.1632579037       11.1727938765
 Al         7.4724758637       11.9647213206       12.9811761141
 Al        10.3865967419        9.0602670916        9.1617213000
 Al        10.3865967068       11.9324170438        9.1617212816
 Al         6.0570286161       16.1309536930       14.9922471335
  O         6.1310819895       10.4963421008        9.0638796560
  O         7.6002737435       14.6948788349       10.9488583926
  O         9.0125621188       10.4963421012        8.9424846047
  O        10.2777917095       14.6948788340       11.0546024475
  O         6.0906596163       16.0032128930        8.8639297019
  O         6.0906596223       13.3865448428        8.8639297064
  O        10.3529729250        9.1880081925       15.2900400551
  O         7.6466616741       11.9012316737       11.1604777548
  O         7.6466616676        9.0914527064       11.1604776168
  O         8.7969640489       13.2899891927       12.9934913070
  O         9.0465140011       16.0040265446        9.2350005641
  O         9.0465140282       13.3857311980        9.2350005656
  O         7.3971111887        9.1871948750       14.9189688557
  O        10.2478184358       11.8923462965       10.9739089689
  O        10.2478184731        9.1003379176       10.9739089111
  O         6.1958149755       13.2988748202       13.1800601052
     320
 i =        2, E =     -3366.4570410912
 Al         2.0843440637        6.2841011454        1.0133639853
 Al         4.7764406054        2.0947003392        4.0066914220
 Al         4.8440884287        6.2841010498        1.0065309426
 Al         3.3530981124        6.2841017774        5.9884979557
 Al         1.9870202188        0.6316357198        4.9246271619
 Al         0.5769911566        4.8508166248        6.9298342382
  O         4.8228792684        6.2841011396        7.0295559859
  O         3.3526830458        2.0947007360        5.1461828655
  O         1.9429979042        6.2841011407        7.1509619709
  O         0.6864932423        2.0947009380        5.0392127471
  O         4.8596714378        3.3983750469        7.2259260440
  O         3.3101279461        7.6896475700        4.9320735878
  O         1.9129009754        3.4004168074        6.8561126382
  O         0.7107218540        7.6802992946        5.1193329331
 Al         3.3847691431        2.0947004818        7.0235588758
 Al         0.6926750491        6.2841018081        4.0302311679
 Al         0.6250287339        2.0947005324        7.0303962787
 Al         2.1160162884        2.0947004163        2.0484239504
 Al         3.4820986754        4.8210311252        3.1122944404
 Al         3.4820983400        7.7471715161        3.1122951424
 Al         1.9870200781        3.5577709310        4.9246273672
 Al         4.8921242677        0.6614151679        1.1070859412
 Al         4.8921242141        3.5279855496        1.1070859389
 Al         0.5769912495        7.7173861061        6.9298335960
  O         0.6462391621        2.0947004360        1.0073639507
  O         2.1164326677        6.2841010521        2.8907424205
  O         3.5261176610        2.0947004360        0.8859589612
  O         4.7826211707        6.2841010595        2.9977082962
  O         0.6094474338        7.5877757371        0.8109960652
  O         0.6094474317        4.9804265179        0.8109960854
  O         4.8596714585        0.7910260593        7.2259261289
  O         2.1589881652        3.5002459375        3.1048474309
  O         2.1589881688        0.6891553579        3.1048471714
  O         3.3101284633        4.8785555171        4.9320736142
  O         3.5562142932        7.5898178331        1.1808088410
  O         3.5562143756        4.9783844448        1.1808088288
  O         1.9129010726        0.7889847309        6.8561128108
  O         4.7583995771        3.4908979206        2.9175879421
  O         4.7583996220        0.6985030025        2.9175878303
  O         0.7107212717        4.8879039603        5.1193329756
 Al         7.6325471526        6.2841011291        1.0133639865
 Al        10.3246437185        2.0947003377        4.0066913978
 Al        10.3922915553        6.2841010493        1.0065309396
 Al         8.9013012179        6.2841017777        5.9884979607
 Al         7.5352233257        0.6316357157        4.9246271492
 Al         6.1251942832        4.8508166192        6.9298342380
  O        10.3710824041        6.2841011363        7.0295559900
  O         8.9008861720        2.0947007355        5.1461828610
  O         7.4912010256        6.2841011410        7.1509619712
  O         6.2346963563        2.0947009394        5.0392127327
  O        10.4078745702        3.3983750548        7.2259260478
  O         8.8583310710        7.6896475727        4.9320735894
  O         7.4611040984        3.4004168034        6.8561126347
  O         6.2589249790        7.6802992945        5.1193329292
 Al         8.9329722142        2.0947004820        7.0235588732
 Al         6.2408781512        6.2841018043        4.0302311521
 Al         6.1732318256        2.0947005369        7.0303962766
 Al         7.6642193809        2.0947004149        2.0484239428
 Al         9.0303017812        4.8210311218        3.1122944313
 Al         9.0303014597        7.7471715196        3.1122951396
 Al         7.5352231915        3.5577709286        4.9246273558
 Al        10.4403274215        0.6614151567        1.1070859426
 Al        10.4403273650        3.5279855412        1.1070859420
 Al         6.1251943727        7.7173860819        6.9298335873
  O         6.1944422955        2.0947004374        1.0073639513
  O         7.6646357881        6.2841010519        2.8907424197
  O         9.0743207813        2.0947004377        0.8859589596
  O        10.3308242924        6.2841010601        2.9977082773
  O         6.1576505647        7.5877757265        0.8109960687
  O         6.1576505619        4.9804265227        0.8109960910
  O        10.4078745874        0.7910260504        7.2259261313
  O         7.7071912827        3.5002459330        3.1048474241
  O         7.7071912896        0.6891553586        3.1048471713
  O         8.8583315886        4.8785555178        4.9320736143
  O         9.1044174131        7.5898178353        1.1808088412
  O         9.1044174996        4.9783844446        1.1808088304
  O         7.4611041961        0.7889847337        6.8561128093
  O        10.3066027007        3.4908979195        2.9175879378
  O        10.3066027508        0.6985029999        2.9175878274
  O         6.2589243965        4.8879039623        5.1193329712
 Al         2.0843439460       14.6629026913        1.0133639849
 Al         4.7764405193       10.4735019076        4.0066914371
 Al         4.8440883115       14.6629026729        1.0065309452
 Al         3.3530979706       14.6629033333        5.9884979424
 Al         1.9870200946        9.0104370775        4.9246271763
 Al         0.5769910325       13.2296181928        6.9298342320
  O         4.8228791472       14.6629026533        7.0295559814
  O         3.3526829291       10.4735022551        5.1461828730
  O         1.9429977827       14.6629026578        7.1509619671
  O         0.6864931270       10.4735024556        5.0392127514
  O         4.8596713176       11.7771765665        7.2259260465
  O         3.3101277999       16.0684490275        4.9320735777
  O         1.9129008562       11.7792183279        6.8561126411
  O         0.7107217713       16.0591007526        5.1193329443
 Al         3.3847690195       10.4735019978        7.0235588987
 Al         0.6926749552       14.6629033710        4.0302311620
 Al         0.6250286183       10.4735021298        7.0303963017
 Al         2.1160161450       10.4735019862        2.0484239649
 Al         3.4820985584       13.1998327031        3.1122944361
 Al         3.4820982231       16.1259728836        3.1122951368
 Al         1.9870199616       11.9365725078        4.9246273706
 Al         4.8921241878        9.0402166357        1.1070859490
 Al         4.8921241015       11.9067871362        1.1070859390
 Al         0.5769911755       16.0961875333        6.9298335979
  O         0.6462390424       10.4735019604        1.0073639520
  O         2.1164325497       14.6629025766        2.8907424216
  O         3.5261175397       10.4735019595        0.8859589633
  O         4.7826210551       14.6629025812        2.9977082959
  O         0.6094472842       15.9665772148        0.8109960539
  O         0.6094473120       13.3592280439        0.8109960872
  O         4.8596713188        9.1698275436        7.2259261335
  O         2.1589880480       11.8790474676        3.1048474352
  O         2.1589880202        9.0679568133        3.1048471721
  O         3.3101283460       13.2573570424        4.9320736151
  O         3.5562141961       15.9686193096        1.1808088417
  O         3.5562142566       13.3571859736        1.1808088268
  O         1.9129009706        9.1677861973        6.8561128161
  O         4.7583994556       11.8696994470        2.9175879384
  O         4.7583995405        9.0773044629        2.9175878488
  O         0.7107211519       13.2667054866        5.1193329722
 Al         7.6325470367       14.6629026819        1.0133639882
 Al        10.3246436211       10.4735019056        4.0066914126
 Al        10.3922914380       14.6629026743        1.0065309387
 Al         8.9013010739       14.6629033324        5.9884979437
 Al         7.5352232133        9.0104370791        4.9246271665
 Al         6.1251941645       13.2296181876        6.9298342324
  O        10.3710822839       14.6629026528        7.0295559872
  O         8.9008860529       10.4735022512        5.1461828680
  O         7.4912009063       14.6629026561        7.1509619671
  O         6.2346962421       10.4735024565        5.0392127365
  O        10.4078744510       11.7771765723        7.2259260506
  O         8.8583309224       16.0684490297        4.9320735775
  O         7.4611039776       11.7792183231        6.8561126377
  O         6.2589248976       16.0591007539        5.1193329395
 Al         8.9329720937       10.4735019958        7.0235588963
 Al         6.2408780664       14.6629033682        4.0302311480
 Al         6.1732317097       10.4735021334        7.0303963003
 Al         7.6642192398       10.4735019858        2.0484239572
 Al         9.0303016607       13.1998327004        3.1122944290
 Al         9.0303013309       16.1259728884        3.1122951343