      40
 i =        1, E =      -420.4620737259
 Al         2.1080252430        6.3085536082        1.0155862208
 Al         4.8335685761        2.1028511489        4.0154759985
 Al         4.9025450480        6.3085536146        1.0080488471
 Al         3.3924691573        6.3085538994        6.0044001413
 Al         2.0108212575        0.6315392308        4.9338720893
 Al         0.5821436652        4.8701612602        6.9463665551
  O         4.8777003071        6.3085535597        7.0416935814
  O         3.3948197291        2.1028513189        5.1597304772
  O         1.9690576774        6.3085535638        7.1678424451
  O         0.6911485959        2.1028514015        5.0499157615
  O         4.9197621663        3.4124612531        7.2480128573
  O         3.3467553053        7.7159621063        4.9437210062
  O         1.9337930528        3.4131085324        6.8687364590
  O         0.7229165800        7.7070768833        5.1344900026
 Al         3.4260528613        2.1028511989        7.0417808785
 Al         0.7005110069        6.3085539161        4.0418912032
 Al         0.6315351630        2.1028512090        7.0493259561
 Al         2.1416095438        2.1028511729        2.0529666786
 Al         3.5232652990        4.8372335301        3.1234945951
 Al         3.5232651509        7.7798737826        3.1234949576
 Al         2.0108212086        3.5741716051        4.9338721790
 Al         4.9519356953        0.6644585413        1.1109993645
 Al         4.9519356848        3.5412438512        1.1109993464
 Al         0.5821437387        7.7469460792        6.9463662396
  O         0.6563860192        2.1028512272        1.0156723020
  O         2.1392596951        6.3085535506        2.8976436587
  O         3.5650218319        2.1028512265        0.8895238020
  O         4.8429300682        6.3085535527        3.0074503771
  O         0.6143244250        7.6181636849        0.8093540078
  O         0.6143244294        4.9989435043        0.8093540137
  O         4.9197621625        0.7932412324        7.2480129067
  O         2.1873243792        3.5102593328        3.1136451991
  O         2.1873243750        0.6954433025        3.1136450618
  O         3.3467554918        4.9011453143        4.9437210304
  O         3.6002862184        7.6188111294        1.1886300530
  O         3.6002862394        4.9982960577        1.1886300558
  O         1.9337930833        0.7925941460        6.8687365387
  O         4.8111711003        3.5013743529        2.9228762523
  O         4.8111711165        0.7043281094        2.9228761939
  O         0.7229163330        4.9100306057        5.1344899903
      40
 i =        2, E =      -420.4687053999
 Al         2.1452967953        6.3038276443        1.0114954540
 Al         4.9131734263        2.1012758035        4.0058001143
 Al         4.9784086222        6.3038276616        1.0054089822
 Al         3.4516136737        6.3038285725        5.9799778339
 Al         2.0472427253        0.6318878973        4.9183954111
 Al         0.6016520568        4.8666803862        6.9155603854
  O         4.9647396130        6.3038275400        7.0023453117
  O         3.4515450951        2.1012762873        5.1435851261
  O         2.0019847805        6.3038275380        7.1465606582
  O         0.7099541268        2.1012766278        5.0153744945
  O         5.0098297372        3.4014100531        7.2260166354
  O         3.4002380027        7.7181485789        4.9089283610
  O         1.9648845219        3.4037224070        6.8194666381
  O         0.7416879504        7.7086632618        5.1133667356
 Al         3.4842636260        2.1012759492        7.0048293720
 Al         0.7163915982        6.3038286940        4.0105238539
 Al         0.6511579160        2.1012760654        7.0109163514
 Al         2.1779485617        2.1012760037        2.0363450694
 Al         3.5823206386        4.8344372878        3.0979271187
 Al         3.5823201006        7.7732182500        3.0979282223
 Al         2.0472425463        3.5706672477        4.9183957450
 Al         5.0279120485        0.6641275222        1.1007601175
 Al         5.0279119744        3.5384241459        1.1007600989
 Al         0.6016523136        7.7409753393        6.9155594165
  O         0.6648230656        2.1012759550        1.0139746668
  O         2.1780192793        6.3038274883        2.8727376813
  O         3.6275797536        2.1012759609        0.8697609540
  O         4.9196085752        6.3038275027        3.0009471834
  O         0.6197335059        7.6039616314        0.7903067705
  O         0.6197335070        5.0036935424        0.7903068283
  O         5.0098297401        0.8011419983        7.2260167552
  O         2.2293276964        3.5155954271        3.1073934543
  O         2.2293276736        0.6869571067        3.1073930590
  O         3.4002387307        4.8895077718        4.9089284363
  O         3.6646796610        7.6062746210        1.1968558058
  O         3.6646797726        5.0013805423        1.1968557752
  O         1.9648846847        0.7988304522        6.8194669197
  O         4.8878792477        3.5061107405        2.9029548261
  O         4.8878792952        0.6964411549        2.9029546688
  O         0.7416870087        4.8989933403        5.1133667421
      40
 i =        3, E =      -420.4693187243
 Al         2.1496704776        6.3031446639        1.0102053879
 Al         4.9238704772        2.1010482077        4.0023893317
 Al         4.9881048907        6.3031446770        1.0042749551
 Al         3.4610832172        6.3031455112        5.9724654381
 Al         2.0532943466        0.6306927992        4.9128051707
 Al         0.6059714116        4.8664389585        6.9070404118
  O         4.9759189928        6.3031446117        6.9901802320
  O         3.4610824634        2.1010486309        5.1381337928
  O         2.0103038564        6.3031445934        7.1383446177
  O         0.7135031199        2.1010489798        5.0052884389
  O         5.0249254653        3.3997805956        7.2177381646
  O         3.4063290304        7.7175499202        4.9024472613
  O         1.9690938487        3.4019729671        6.8079171320
  O         0.7473218675        7.7085092641        5.1056143518
 Al         3.4938096195        2.1010483337        6.9947164418
 Al         0.7196134331        6.3031456526        4.0025312473
 Al         0.6553800258        2.1010484852        7.0006468987
 Al         2.1823984394        2.1010484537        2.0324543149
 Al         3.5901877816        4.8327874366        3.0921142732
 Al         3.5901872467        7.7735020724        3.0921151594
 Al         2.0532941512        3.5714062655        4.9128055060
 Al         5.0375115924        0.6643414290        1.0978776536
 Al         5.0375115145        3.5377548719        1.0978776450
 Al         0.6059716694        7.7398507786        6.9070396178
  O         0.6675624584        2.1010482895        1.0147369830
  O         2.1824009313        6.3031445424        2.8667855891
  O         3.6331794820        2.1010483003        0.8665744646
  O         4.9299793171        6.3031445624        2.9996308528
  O         0.6185563659        7.6018766732        0.7871821671
  O         0.6185563582        5.0044125104        0.7871822816
  O         5.0249254856        0.8023161225        7.2177382442
  O         2.2371558317        3.5154520913        3.1024721406
  O         2.2371558042        0.6866451004        3.1024717963
  O         3.4063297567        4.8887406188        4.9024472757
  O         3.6743895143        7.6040696317        1.1970026221
  O         3.6743896405        5.0022195397        1.1970025386
  O         1.9690940372        0.8001246312        6.8079173850
  O         4.8961637069        3.5064119530        2.8993044131
  O         4.8961637461        0.6956845683        2.8993043104
  O         0.7473209234        4.8977815541        5.1056144221
      40
 i =        4, E =      -420.4705698236
 Al         2.1584066420        6.3032079504        1.0061178912
 Al         4.9470559435        2.1010695200        3.9912576107
 Al         5.0074998474        6.3032079333        1.0010032547
 Al         3.4845692279        6.3032084031        5.9493252313
 Al         2.0687524492        0.6258891094        4.8942453320
 Al         0.6191254344        4.8674948863        6.8805695066
  O         5.0001941184        6.3032081338        6.9524175089
  O         3.4859689441        2.1010697024        5.1211666988
  O         2.0362437833        6.3032080600        7.1119159259
  O         0.7240748774        2.1010700066        4.9744805220
  O         5.0632983780        3.3971744672        7.1902445912
  O         3.4176513872        7.7164912554        4.8865520179
  O         1.9789922192        3.3985352068        6.7764494719
  O         0.7657192961        7.7089313851        5.0804165477
 Al         3.5178182370        2.1010695741        6.9648124405
 Al         0.7291693314        6.3032085889        3.9796710278
 Al         0.6687245296        2.1010698059        6.9699271671
 Al         2.1916560573        2.1010698769        2.0216033602
 Al         3.6074726227        4.8280268344        3.0766835462
 Al         3.6074721774        7.7783890207        3.0766835079
 Al         2.0687522013        3.5762504925        4.8942455857
 Al         5.0570991435        0.6653554014        1.0903601827
 Al         5.0570990666        3.5367829756        1.0903601858
 Al         0.6191256548        7.7389213462        6.8805694558
  O         0.6760303167        2.1010693707        1.0185104797
  O         2.1902564540        6.3032080086        2.8497620948
  O         3.6399807424        2.1010693961        0.8590143598
  O         4.9521519355        6.3032080379        2.9964501090
  O         0.6129256037        7.5993122177        0.7806847101
  O         0.6129255639        5.0071035005        0.7806849945
  O         5.0632984722        0.8049643909        7.1902445179
  O         2.2585755657        3.5143514926        3.0843786331
  O         2.2585755297        0.6877877655        3.0843784739
  O         3.4176519015        4.8899261302        4.8865517838
  O         3.6972335198        7.6006731635        1.1944807464
  O         3.6972336717        5.0057425366        1.1944805045
  O         1.9789924671        0.8036046485        6.7764495718
  O         4.9105069214        3.5067917208        2.8905123917
  O         4.9105069332        0.6953468221        2.8905125058
  O         0.7657186060        4.8974863498        5.0804168307
      40
 i =        5, E =      -420.4709091887
 Al         2.1603936182        6.3057234456        1.0045712103
 Al         4.9522040575        2.1019080526        3.9872674819
 Al         5.0104230042        6.3057233981        1.0004797823
 Al         3.4913530799        6.3057237718        5.9420348130
 Al         2.0734925067        0.6239694081        4.8871149343
 Al         0.6244642327        4.8696831553        6.8710440499
  O         5.0068967418        6.3057237409        6.9396566793
  O         3.4941171501        2.1019082055        5.1157416744
  O         2.0464248642        6.3057236567        7.1030942576
  O         0.7289997538        2.1019084518        4.9642310456
  O         5.0746768414        3.3982704019        7.1797637074
  O         3.4194019618        7.7185272119        4.8834703045
  O         1.9823465070        3.3993272358        6.7688084327
  O         0.7732196588        7.7110111628        5.0713121974
 Al         3.5249376028        2.1019081054        6.9558759609
 Al         0.7331264955        6.3057239531        3.9731786045
 Al         0.6749060783        2.1019083277        6.9599680117
 Al         2.1939780877        2.1019084156        2.0184112996
 Al         3.6118388649        4.8277841993        3.0733319503
 Al         3.6118384661        7.7836626271        3.0733316132
 Al         2.0734922423        3.5798469567        4.8871151132
 Al         5.0608656575        0.6658668265        1.0894038845
 Al         5.0608655841        3.5379485578        1.0894038920
 Al         0.6244644227        7.7417641109        6.8710442444
  O         0.6784339713        2.1019078793        1.0207896815
  O         2.1912137007        6.3057235994        2.8447051618
  O         3.6389048986        2.1019079079        0.8573541561
  O         4.9563328295        6.3057236172        2.9962175008
  O         0.6106530464        7.6020850946        0.7806831004
  O         0.6106529935        5.0093616368        0.7806833873
  O         5.0746769761        0.8055454765        7.1797635971
  O         2.2659301876        3.5147106598        3.0769782544
  O         2.2659301451        0.6891055965        3.0769781175
  O         3.4194022494        4.8929210675        4.8834699848
  O         3.7029845425        7.6031418752        1.1916396729
  O         3.7029846809        5.0083048400        1.1916394331
  O         1.9823467589        0.8044896184        6.7688084626
  O         4.9121116707        3.5071946080        2.8891346421
  O         4.9121116791        0.6966209259        2.8891348253
  O         0.7732192379        4.9004374873        5.0713125192
      40
 i =        6, E =      -420.4712093958
 Al         2.1635546636        6.3115643995        1.0028057591
 Al         4.9585118115        2.1038550024        3.9835071129
 Al         5.0133935835        6.3115643074        1.0008778425
 Al         3.4994188611        6.3115646770        5.9360821350
 Al         2.0791447430        0.6224943777        4.8795330410
 Al         0.6312309289        4.8741146298        6.8611053537
  O         5.0174067481        6.3115648080        6.9273862697
  O         3.5042002940        2.1038552261        5.1111511869
  O         2.0584360484        6.3115647408        7.0954282953
  O         0.7367655554        2.1038553822        4.9543244367
  O         5.0878441821        3.4015246718        7.1686835323
  O         3.4220093007        7.7247495003        4.8819981903
  O         1.9876121402        3.4026127294        6.7641456331
  O         0.7821132119        7.7163348949        5.0621245330
 Al         3.5334453336        2.1038551041        6.9485787371
 Al         0.7384872107        6.3115648420        3.9678775119
 Al         0.6836037665        2.1038552737        6.9505076664
 Al         2.1975807379        2.1038553442        2.0153023593
 Al         3.6178557545        4.8302032790        3.0718527657
 Al         3.6178553881        7.7929255386        3.0718523181
 Al         2.0791444607        3.5852159240        4.8795331277
 Al         5.0657673065        0.6664045207        1.0902809361
 Al         5.0657672321        3.5413049181        1.0902809279
 Al         0.6312310782        7.7490146912        6.8611056428
  O         0.6795929704        2.1038548963        1.0239990926
  O         2.1927989649        6.3115646714        2.8402342455
  O         3.6385621913        2.1038549225        0.8559583334
  O         4.9602348323        6.3115646483        2.9970619817
  O         0.6091544203        7.6092335005        0.7827015261
  O         0.6091543576        5.0138952089        0.7827017196
  O         5.0878443667        0.8061852692        7.1686834297
  O         2.2749907272        3.5170392640        3.0693883098
  O         2.2749906833        0.6906710453        3.0693881340
  O         3.4220092429        4.8983803940        4.8819978430
  O         3.7093868320        7.6103211806        1.1872406916
  O         3.7093869282        5.0128075220        1.1872405525
  O         1.9876123824        0.8050981014        6.7641456023
  O         4.9148860903        3.5086246269        2.8892607679
  O         4.9148861092        0.6990849572        2.8892609718
  O         0.7821132064        4.9067953861        5.0621248145
      40
 i =        7, E =      -420.4714132095
 Al         2.1675418485        6.3177335430        1.0015166374
 Al         4.9655900979        2.1059113132        3.9817283754
 Al         5.0177744133        6.3177334365        1.0018273570
 Al         3.5066992537        6.3177338493        5.9336815662
 Al         2.0839707583        0.6224808649        4.8747614700
 Al         0.6364102031        4.8784240289        6.8548744807
  O         5.0297127904        6.3177339943        6.9201219664
  O         3.5126866098        2.1059116507        5.1089655003
  O         2.0668806561        6.3177339734        7.0917756780
  O         0.7443809024        2.1059117393        4.9482043407
  O         5.0991127383        3.4048693995        7.1617080105
  O         3.4259414357        7.7323385074        4.8814955524
  O         1.9931725218        3.4064350519        6.7626926500
  O         0.7884092586        7.7225438070        5.0564767505
 Al         3.5410099266        2.1059114820        6.9451583570
 Al         0.7429612512        6.3177340088        3.9649474986
 Al         0.6907755243        2.1059116013        6.9448483459
 Al         2.2018520717        2.1059116348        2.0129940427
 Al         3.6245817751        4.8343028192        3.0719155359
 Al         3.6245814064        7.8011644101        3.0719152195
 Al         2.0839704656        3.5893422271        4.8747615153
 Al         5.0721401699        0.6666012760        1.0918021808
 Al         5.0721400837        3.5452210268        1.0918021491
 Al         0.6364103142        7.7570437331        6.8548746819
  O         0.6788387940        2.1059113133        1.0265544643
  O         2.1958647078        6.3177338978        2.8377106503
  O         3.6416700049        2.1059113337        0.8549011257
  O         4.9641705332        6.3177338139        2.9984721635
  O         0.6094377639        7.6166912763        0.7849679350
  O         0.6094377087        5.0187757937        0.7849679987
  O         5.0991129604        0.8069534155        7.1617079559
  O         2.2826102133        3.5205157274        3.0651811463
  O         2.2826101795        0.6913074415        3.0651809356
  O         3.4259411423        4.9031294017        4.8814952741
  O         3.7153780383        7.6182563657        1.1839841634
  O         3.7153780822        5.0172107068        1.1839841578
  O         1.9931727510        0.8053885396        6.7626925953
  O         4.9201417207        3.5107210037        2.8901994289
  O         4.9201417543        0.7011014566        2.8901995863
  O         0.7884095472        4.9129244778        5.0564769327
      40
 i =        8, E =      -420.4715463794
 Al         2.1719065056        6.3235146697        1.0004948169
 Al         4.9731690110        2.1078382973        3.9812289487
 Al         5.0234632586        6.3235145760        1.0028392790
 Al         3.5133234552        6.3235149906        5.9330103841
 Al         2.0880435021        0.6234972488        4.8715703758
 Al         0.6400699777        4.8821731934        6.8508431233
  O         5.0428712224        6.3235150933        6.9152157672
  O         3.5196002075        2.1078387144        5.1078411985
  O         2.0723859744        6.3235151418        7.0899220585
  O         0.7517060132        2.1078387572        4.9438255401
  O         5.1089509214        3.4078133877        7.1569911103
  O         3.4305220849        7.7401250382        4.8809113155
  O         1.9984563348        3.4100982052        6.7619194393
  O         0.7927147793        7.7290608256        5.0526005628
 Al         3.5477581212        2.1078385190        6.9433550172
 Al         0.7464959606        6.3235151644        3.9626218239
 Al         0.6962007425        2.1078386112        6.9410105070
 Al         2.2063408107        2.1078386002        2.0108401746
 Al         3.6316218742        4.8391736166        3.0722812035
 Al         3.6316215057        7.8078559547        3.0722811079
 Al         2.0880432185        3.5921799416        4.8715704170
 Al         5.0795939011        0.6664964411        1.0930075245
 Al         5.0795937959        3.5491800277        1.0930074839
 Al         0.6400700398        7.7648569192        6.8508431838
  O         0.6767930765        2.1078383844        1.0286351807
  O         2.2000644218        6.3235150683        2.8360092736
  O         3.6472784963        2.1078383960        0.8539284691
  O         4.9679578822        6.3235149040        3.0000249201
  O         0.6107125835        7.6234896353        0.7868594832
  O         0.6107125435        5.0235397215        0.7868594235
  O         5.1089511611        0.8078636240        7.1569911252
  O         2.2891425930        3.5244483942        3.0629394348
  O         2.2891425832        0.6912289020        3.0629392447
  O         3.4305216916        4.9069049093        4.8809111744
  O         3.7212072556        7.6257738634        1.1819315155
  O         3.7212072412        5.0212555206        1.1819316344
  O         1.9984565571        0.8055794239        6.7619193756
  O         4.9269492691        3.5133840999        2.8912502316
  O         4.9269493109        0.7022925472        2.8912503059
  O         0.7927152133        4.9179694626        5.0526006203
      40
 i =        9, E =      -420.4715932521
 Al         2.1737574251        6.3257424261        1.0001041637
 Al         4.9762487835        2.1085808787        3.9815840486
 Al         5.0263309475        6.3257423539        1.0031720979
 Al         3.5154499886        6.3257427077        5.9331598930
 Al         2.0891061141        0.6245199415        4.8705732559
 Al         0.6405319891        4.8833989817        6.8498301980
  O         5.0485422633        6.3257427834        6.9134811273
  O         3.5211658977        2.1085812775        5.1074622749
  O         2.0727851250        6.3257428793        7.0892929038
  O         0.7548243452        2.1085813120        4.9421242295
  O         5.1119664925        3.4088122809        7.1554803400
  O         3.4323072864        7.7434337433        4.8804203509
  O         2.0001365930        3.4114575947        6.7612064422
  O         0.7933734947        7.7321897551        5.0512013927
 Al         3.5498132219        2.1085811097        6.9428032843
 Al         0.7473224135        6.3257428963        3.9613238676
 Al         0.6972395131        2.1085812049        6.9397348318
 Al         2.2081203538        2.1085811734        2.0097480079
 Al         3.6344650642        4.8416815563        3.0723351757
 Al         3.6344647157        7.8098035122        3.0723351787
 Al         2.0891058537        3.5926424328        4.8705733144
 Al         5.0830382056        0.6662371120        1.0930774020
 Al         5.0830380871        3.5509245406        1.0930773613
 Al         0.6405320118        7.7680866148        6.8498302095
  O         0.6750278647        2.1085809767        1.0294268295
  O         2.2024048694        6.3257428131        2.8354453018
  O         3.6507857161        2.1085809795        0.8536144420
  O         4.9687456445        6.3257425995        3.0007833350
  O         0.6116031150        7.6259737854        0.7874274142
  O         0.6116030904        5.0255110599        0.7874273146
  O         5.1119667291        0.8083499430        7.1554803898
  O         2.2912635099        3.5262720782        3.0624875109
  O         2.2912635240        0.6908903454        3.0624873905
  O         3.4323069518        4.9080516478        4.8804203037
  O         3.7234332165        7.6286186154        1.1817014562
  O         3.7234331751        5.0228662787        1.1817016121
  O         2.0001368171        0.8057051238        6.7612063747
  O         4.9301967618        3.5150279026        2.8917065866
  O         4.9301967956        0.7021339387        2.8917066034
  O         0.7933738828        4.9192959496        5.0512013873
      40
 i =       10, E =      -420.4716179945
 Al         2.1743136584        6.3265099591        0.9998629967
 Al         4.9768564694        2.1088367454        3.9818969298
 Al         5.0273786666        6.3265099016        1.0031542561
 Al         3.5153731295        6.3265101737        5.9330312042
 Al         2.0887612807        0.6253333158        4.8698820957
 Al         0.6396847215        4.8836265093        6.8493081898
  O         5.0503468982        6.3265102368        6.9121901203
  O         3.5203062643        2.1088370816        5.1069283220
  O         2.0712359021        6.3265103689        7.0883832735
  O         0.7561881238        2.1088371159        4.9408256547
  O         5.1118444394        3.4090762675        7.1544717883
  O         3.4323199309        7.7446908854        4.8799979262
  O         1.9999328500        3.4117880070        6.7601064136
  O         0.7926580982        7.7339049049        5.0501129673
 Al         3.5495613942        2.1088369645        6.9421700561
 Al         0.7470189849        6.3265103656        3.9601360874
 Al         0.6964961726        2.1088370735        6.9388781236
 Al         2.2085016347        2.1088370224        2.0090020163
 Al         3.6351140615        4.8430065372        3.0721512217
 Al         3.6351137558        7.8100135263        3.0721512373
 Al         2.0887610549        3.5923407786        4.8698821647
 Al         5.0841899562        0.6659530021        1.0927246519
 Al         5.0841898276        3.5517203260        1.0927246229
 Al         0.6396847044        7.7693940717        6.8493082195
  O         0.6735275291        2.1088368192        1.0298429737
  O         2.2035688205        6.3265103136        2.8351046037
  O         3.6526393000        2.1088368150        0.8536493145
  O         4.9676865089        6.3265100622        3.0012073241
  O         0.6120296821        7.6267494363        0.7875611625
  O         0.6120296702        5.0262704224        0.7875610630
  O         5.1118446630        0.8085976634        7.1544718556
  O         2.2915552292        3.5270176701        3.0620353080
  O         2.2915552642        0.6906563699        3.0620352701
  O         3.4323197081        4.9083295311        4.8799979340
  O         3.7239415042        7.6294608395        1.1819266265
  O         3.7239414472        5.0235590907        1.1819267772
  O         1.9999330713        0.8058863039        6.7601063430
  O         4.9312166879        3.5162313908        2.8919202527
  O         4.9312167096        0.7014421341        2.8919202324
  O         0.7926583768        4.9191158076        5.0501129349
      40
 i =       11, E =      -420.4716346082
 Al         2.1742348655        6.3266256434        0.9996012048
 Al         4.9760363759        2.1088753364        3.9818368030
 Al         5.0272649153        6.3266255872        1.0029643687
 Al         3.5140862294        6.3266257858        5.9323792029
 Al         2.0876903871        0.6258887576        4.8688994476
 Al         0.6382401466        4.8834476368        6.8483955778
  O         5.0499254279        6.3266258393        6.9105736788
  O         3.5183110466        2.1088755957        5.1060177062
  O         2.0689180674        6.3266259975        7.0868596091
  O         0.7566754838        2.1088756319        4.9392558683
  O         5.1101462466        3.4090760638        7.1531463544
  O         3.4311762457        7.7449138301        4.8796707182
  O         1.9985996270        3.4115949213        6.7586579705
  O         0.7913230874        7.7349675828        5.0486927281
 Al         3.5480016589        2.1088755377        6.9411505408
 Al         0.7462002467        6.3266259710        3.9589145875
 Al         0.6949711912        2.1088756547        6.9377868048
 Al         2.2081500073        2.1088755812        2.0083725470
 Al         3.6345462495        4.8436389395        3.0718521046
 Al         3.6345459998        7.8096123977        3.0718520898
 Al         2.0876902030        3.5918625079        4.8688995124
 Al         5.0839960089        0.6656970557        1.0923558592
 Al         5.0839958729        3.5520533809        1.0923558481
 Al         0.6382400921        7.7698042121        6.8483956525
  O         0.6723105035        2.1088753778        1.0301778896
  O         2.2039253640        6.3266259543        2.8347339057
  O         3.6533183633        2.1088753683        0.8538917060
  O         4.9655608932        6.3266256736        3.0014958195
  O         0.6120895190        7.6268262754        0.7876050426
  O         0.6120895177        5.0264248909        0.7876049636
  O         5.1101464539        0.8086750020        7.1531464323
  O         2.2910602674        3.5271636197        3.0610811590
  O         2.2910603201        0.6905874745        3.0610811881
  O         3.4311761442        4.9083378952        4.8796707462
  O         3.7236363075        7.6293449470        1.1820935372
  O         3.7236362420        5.0239063140        1.1820936634
  O         1.9985998369        0.8061564147        6.7586579024
  O         4.9309132653        3.5172169924        2.8920589604
  O         4.9309132761        0.7005336468        2.8920589167
  O         0.7913232458        4.9182844287        5.0486926882
      40
 i =       12, E =      -420.4716469006
 Al         2.1739816629        6.3264134580        0.9992815635
 Al         4.9745607307        2.1088046332        3.9813054609
 Al         5.0266063026        6.3264133824        1.0027216989
 Al         3.5122136310        6.3264135444        5.9313149888
 Al         2.0863088384        0.6261795258        4.8675599423
 Al         0.6365453011        4.8831094719        6.8468926598
  O         5.0482512840        6.3264135782        6.9086313918
  O         3.5160075789        2.1088048241        5.1047841847
  O         2.0664288706        6.3264137489        7.0848698024
  O         0.7565601356        2.1088048620        4.9373816747
  O         5.1077982663        3.4089962102        7.1514453775
  O         3.4294207074        7.7446006206        4.8794621571