 Entering Gaussian System, Link 0=g16
 Initial command:
 /home/apps/g16/l1.exe "./Gau-442357.inp" -scrdir="./"
 Entering Link 1 = /home/apps/g16/l1.exe PID=    442358.
  
 Copyright (c) 1988-2017, Gaussian, Inc.  All Rights Reserved.
  
 This is part of the Gaussian(R) 16 program.  It is based on
 the Gaussian(R) 09 system (copyright 2009, Gaussian, Inc.),
 the Gaussian(R) 03 system (copyright 2003, Gaussian, Inc.),
 the Gaussian(R) 98 system (copyright 1998, Gaussian, Inc.),
 the Gaussian(R) 94 system (copyright 1995, Gaussian, Inc.),
 the Gaussian 92(TM) system (copyright 1992, Gaussian, Inc.),
 the Gaussian 90(TM) system (copyright 1990, Gaussian, Inc.),
 the Gaussian 88(TM) system (copyright 1988, Gaussian, Inc.),
 the Gaussian 86(TM) system (copyright 1986, Carnegie Mellon
 University), and the Gaussian 82(TM) system (copyright 1983,
 Carnegie Mellon University). Gaussian is a federally registered
 trademark of Gaussian, Inc.
  
 This software contains proprietary and confidential information,
 including trade secrets, belonging to Gaussian, Inc.
  
 This software is provided under written license and may be
 used, copied, transmitted, or stored only in accord with that
 written license.
  
 The following legend is applicable only to US Government
 contracts under FAR:
  
                    RESTRICTED RIGHTS LEGEND
  
 Use, reproduction and disclosure by the US Government is
 subject to restrictions as set forth in subparagraphs (a)
 and (c) of the Commercial Computer Software - Restricted
 Rights clause in FAR 52.227-19.
  
 Gaussian, Inc.
 340 Quinnipiac St., Bldg. 40, Wallingford CT 06492
  
  
 ---------------------------------------------------------------
 Warning -- This program may not be used in any manner that
 competes with the business of Gaussian, Inc. or will provide
 assistance to any competitor of Gaussian, Inc.  The licensee
 of this program is prohibited from giving any competitor of
 Gaussian, Inc. access to this program.  By using this program,
 the user acknowledges that Gaussian, Inc. is engaged in the
 business of creating and licensing software in the field of
 computational chemistry and represents and warrants to the
 licensee that it is not a competitor of Gaussian, Inc. and that
 it will not use this program in any manner prohibited above.
 ---------------------------------------------------------------
  

 Cite this work as:
 Gaussian 16, Revision B.01,
 M. J. Frisch, G. W. Trucks, H. B. Schlegel, G. E. Scuseria, 
 M. A. Robb, J. R. Cheeseman, G. Scalmani, V. Barone, 
 G. A. Petersson, H. Nakatsuji, X. Li, M. Caricato, A. V. Marenich, 
 J. Bloino, B. G. Janesko, R. Gomperts, B. Mennucci, H. P. Hratchian, 
 J. V. Ortiz, A. F. Izmaylov, J. L. Sonnenberg, D. Williams-Young, 
 F. Ding, F. Lipparini, F. Egidi, J. Goings, B. Peng, A. Petrone, 
 T. Henderson, D. Ranasinghe, V. G. Zakrzewski, J. Gao, N. Rega, 
 G. Zheng, W. Liang, M. Hada, M. Ehara, K. Toyota, R. Fukuda, 
 J. Hasegawa, M. Ishida, T. Nakajima, Y. Honda, O. Kitao, H. Nakai, 
 T. Vreven, K. Throssell, J. A. Montgomery, Jr., J. E. Peralta, 
 F. Ogliaro, M. J. Bearpark, J. J. Heyd, E. N. Brothers, K. N. Kudin, 
 V. N. Staroverov, T. A. Keith, R. Kobayashi, J. Normand, 
 K. Raghavachari, A. P. Rendell, J. C. Burant, S. S. Iyengar, 
 J. Tomasi, M. Cossi, J. M. Millam, M. Klene, C. Adamo, R. Cammi, 
 J. W. Ochterski, R. L. Martin, K. Morokuma, O. Farkas, 
 J. B. Foresman, and D. J. Fox, Gaussian, Inc., Wallingford CT, 2016.
 
 ******************************************
 Gaussian 16:  EM64L-G16RevB.01 20-Dec-2017
                 1-May-2022 
 ******************************************
 %nprocshared=16
 Will use up to   16 processors via shared memory.
 %mem=2000MW
 %chk=c2sdimerts2.chk
 ----------------------------------------------------------------------
 # opt=(tight,maxcycle=1600) freq wb97xd/6-311++g(d,p) scrf=(cpcm,solve
 nt=water) nosymm scf=maxcycle=800
 ----------------------------------------------------------------------
 1/6=1600,7=10,18=20,19=15,26=3,38=1/1,3;
 2/9=110,12=2,15=1,17=6,18=5,40=1/2;
 3/5=4,6=6,7=1111,11=2,25=1,30=1,70=2101,71=1,72=1,74=-58/1,2,3;
 4//1;
 5/5=2,7=800,38=5,53=1/2;
 6/7=2,8=2,9=2,10=2,28=1/1;
 7/30=1/1,2,3,16;
 1/6=1600,7=10,18=20,19=15,26=3/3(2);
 2/9=110,15=1/2;
 99//99;
 2/9=110,15=1/2;
 3/5=4,6=6,7=1111,11=2,25=1,30=1,70=2105,71=1,72=1,74=-58/1,2,3;
 4/5=5,16=3,69=1/1;
 5/5=2,7=800,38=5,53=1/2;
 7/30=1/1,2,3,16;
 1/6=1600,7=10,18=20,19=15,26=3/3(-5);
 2/9=110,15=1/2;
 6/7=2,8=2,9=2,10=2,19=2,28=1/1;
 99/9=1/99;
 -----------
 c2sdimerts2
 -----------
 Symbolic Z-matrix:
 Charge = -1 Multiplicity = 1
 Si                   -0.15226   0.64926   0.08285 
 O                    -1.81991   0.77653  -0.12513 
 O                     0.09576   0.5755   -1.6488 
 O                     0.08166   2.21009   0.75698 
 O                    -0.29434  -0.7443    1.08081 
 Ca                   -3.13342   2.47552  -0.95597 
 O                    -3.40303   0.00015  -1.94209 
 O                    -3.89761   1.27661   1.19215 
 O                    -2.01913   3.91214   0.28216 
 O                    -1.56889   2.2577   -2.79362 
 H                    -2.98496   0.9325    0.91258 
 H                    -3.76271   1.80236   1.98499 
 H                    -2.6579    0.06915  -1.2609 
 H                    -2.97167   0.01225  -2.79878 
 H                    -0.69638   2.80448   0.64116 
 H                    -1.81303   4.83806   0.39449 
 H                    -0.88329   1.62956  -2.43094 
 H                    -1.09612   2.96818  -3.22924 
 H                     0.59401  -1.01868   1.31294 
 H                     1.02362   0.62825  -1.90212 
 Si                    2.95232   1.24622  -0.21435 
 O                     4.39059   0.74101   0.30892 
 O                     2.66506   2.83983   0.19818 
 O                     2.97977   1.23238  -1.91221 
 O                     1.67208   0.37232   0.27695 
 Ca                    6.15008   0.14288  -1.22398 
 O                     6.75621   1.64872   0.72215 
 O                     5.66488  -1.47588   0.63208 
 O                     4.61983  -0.66086  -2.59551 
 O                     5.49781   2.27572  -2.32418 
 H                     4.94112  -0.81344   0.75578 
 H                     5.24426  -2.31879   0.4581 
 H                     5.77512   1.58234   0.82588 
 H                     6.98063   2.57956   0.68873 
 H                     3.45857   0.42052  -2.26755 
 H                     4.49212  -1.37109  -3.33999 
 H                     4.5284    2.15697  -2.31902 
 H                     5.66195   3.1393   -1.94073 
 H                     1.72242   2.88065   0.4627 
 

 GradGradGradGradGradGradGradGradGradGradGradGradGradGradGradGradGradGrad
 Berny optimization.
 Initialization pass.
                           ----------------------------
                           !    Initial Parameters    !
                           ! (Angstroms and Degrees)  !
 --------------------------                            --------------------------
 ! Name  Definition              Value          Derivative Info.                !
 --------------------------------------------------------------------------------
 ! R1    R(1,2)                  1.6854         estimate D2E/DX2                !
 ! R2    R(1,3)                  1.7509         estimate D2E/DX2                !
 ! R3    R(1,4)                  1.7162         estimate D2E/DX2                !
 ! R4    R(1,5)                  1.7199         estimate D2E/DX2                !
 ! R5    R(1,25)                 1.8554         estimate D2E/DX2                !
 ! R6    R(2,6)                  2.3026         estimate D2E/DX2                !
 ! R7    R(3,20)                 0.9633         estimate D2E/DX2                !
 ! R8    R(4,15)                 0.9859         estimate D2E/DX2                !
 ! R9    R(5,19)                 0.9583         estimate D2E/DX2                !
 ! R10   R(6,7)                  2.6782         estimate D2E/DX2                !
 ! R11   R(6,8)                  2.576          estimate D2E/DX2                !
 ! R12   R(6,9)                  2.1997         estimate D2E/DX2                !
 ! R13   R(6,10)                 2.4233         estimate D2E/DX2                !
 ! R14   R(6,11)                 2.4278         estimate D2E/DX2                !
 ! R15   R(6,13)                 2.4718         estimate D2E/DX2                !
 ! R16   R(7,13)                 1.0119         estimate D2E/DX2                !
 ! R17   R(7,14)                 0.9592         estimate D2E/DX2                !
 ! R18   R(8,11)                 1.0146         estimate D2E/DX2                !
 ! R19   R(8,12)                 0.9608         estimate D2E/DX2                !
 ! R20   R(9,16)                 0.9552         estimate D2E/DX2                !
 ! R21   R(10,17)                0.9981         estimate D2E/DX2                !
 ! R22   R(10,18)                0.9581         estimate D2E/DX2                !
 ! R23   R(21,22)                1.6117         estimate D2E/DX2                !
 ! R24   R(21,23)                1.671          estimate D2E/DX2                !
 ! R25   R(21,24)                1.6981         estimate D2E/DX2                !
 ! R26   R(21,25)                1.6261         estimate D2E/DX2                !
 ! R27   R(22,26)                2.409          estimate D2E/DX2                !
 ! R28   R(23,39)                0.9799         estimate D2E/DX2                !
 ! R29   R(24,35)                1.0073         estimate D2E/DX2                !
 ! R30   R(26,27)                2.5342         estimate D2E/DX2                !
 ! R31   R(26,28)                2.5101         estimate D2E/DX2                !
 ! R32   R(26,29)                2.2065         estimate D2E/DX2                !
 ! R33   R(26,30)                2.487          estimate D2E/DX2                !
 ! R34   R(27,33)                0.9888         estimate D2E/DX2                !
 ! R35   R(27,34)                0.9581         estimate D2E/DX2                !
 ! R36   R(28,31)                0.9889         estimate D2E/DX2                !
 ! R37   R(28,32)                0.958          estimate D2E/DX2                !
 ! R38   R(29,36)                1.0368         estimate D2E/DX2                !
 ! R39   R(30,37)                0.9767         estimate D2E/DX2                !
 ! R40   R(30,38)                0.959          estimate D2E/DX2                !
 ! A1    A(2,1,3)               91.2203         estimate D2E/DX2                !
 ! A2    A(2,1,4)               96.584          estimate D2E/DX2                !
 ! A3    A(2,1,5)               92.9261         estimate D2E/DX2                !
 ! A4    A(3,1,4)              114.0476         estimate D2E/DX2                !
 ! A5    A(3,1,5)              123.4653         estimate D2E/DX2                !
 ! A6    A(3,1,25)              87.5866         estimate D2E/DX2                !
 ! A7    A(4,1,5)              121.3481         estimate D2E/DX2                !
 ! A8    A(4,1,25)              87.7441         estimate D2E/DX2                !
 ! A9    A(5,1,25)              84.2374         estimate D2E/DX2                !
 ! A10   A(1,2,6)              131.6579         estimate D2E/DX2                !
 ! A11   A(1,3,20)             113.218          estimate D2E/DX2                !
 ! A12   A(1,4,15)             113.2407         estimate D2E/DX2                !
 ! A13   A(1,5,19)             107.2148         estimate D2E/DX2                !
 ! A14   A(2,6,7)               60.5482         estimate D2E/DX2                !
 ! A15   A(2,6,8)               61.6365         estimate D2E/DX2                !
 ! A16   A(2,6,9)               89.4171         estimate D2E/DX2                !
 ! A17   A(2,6,10)              80.7357         estimate D2E/DX2                !
 ! A18   A(2,6,11)              38.6002         estimate D2E/DX2                !
 ! A19   A(2,6,13)              38.4138         estimate D2E/DX2                !
 ! A20   A(7,6,8)               81.1998         estimate D2E/DX2                !
 ! A21   A(7,6,9)              149.5312         estimate D2E/DX2                !
 ! A22   A(7,6,10)              72.7038         estimate D2E/DX2                !
 ! A23   A(7,6,11)              72.6693         estimate D2E/DX2                !
 ! A24   A(8,6,9)               89.133          estimate D2E/DX2                !
 ! A25   A(8,6,10)             141.4509         estimate D2E/DX2                !
 ! A26   A(8,6,13)              72.9532         estimate D2E/DX2                !
 ! A27   A(9,6,10)              99.1194         estimate D2E/DX2                !
 ! A28   A(9,6,11)              87.1857         estimate D2E/DX2                !
 ! A29   A(9,6,13)             127.4313         estimate D2E/DX2                !
 ! A30   A(10,6,11)            119.1459         estimate D2E/DX2                !
 ! A31   A(10,6,13)             72.2259         estimate D2E/DX2                !
 ! A32   A(11,6,13)             57.6187         estimate D2E/DX2                !
 ! A33   A(6,7,14)             105.7779         estimate D2E/DX2                !
 ! A34   A(13,7,14)            105.6173         estimate D2E/DX2                !
 ! A35   A(6,8,12)             113.0656         estimate D2E/DX2                !
 ! A36   A(11,8,12)            106.657          estimate D2E/DX2                !
 ! A37   A(6,9,16)             143.9571         estimate D2E/DX2                !
 ! A38   A(6,10,17)            102.9737         estimate D2E/DX2                !
 ! A39   A(6,10,18)            126.6335         estimate D2E/DX2                !
 ! A40   A(17,10,18)           107.0342         estimate D2E/DX2                !
 ! A41   A(22,21,23)           111.8509         estimate D2E/DX2                !
 ! A42   A(22,21,24)           107.9165         estimate D2E/DX2                !
 ! A43   A(22,21,25)           115.851          estimate D2E/DX2                !
 ! A44   A(23,21,24)           104.9152         estimate D2E/DX2                !
 ! A45   A(23,21,25)           107.6138         estimate D2E/DX2                !
 ! A46   A(24,21,25)           108.0855         estimate D2E/DX2                !
 ! A47   A(21,22,26)           121.5344         estimate D2E/DX2                !
 ! A48   A(21,23,39)           105.7679         estimate D2E/DX2                !
 ! A49   A(21,24,35)           111.5281         estimate D2E/DX2                !
 ! A50   A(1,25,21)            131.4765         estimate D2E/DX2                !
 ! A51   A(22,26,27)            62.5163         estimate D2E/DX2                !
 ! A52   A(22,26,28)            63.1554         estimate D2E/DX2                !
 ! A53   A(22,26,29)            88.8219         estimate D2E/DX2                !
 ! A54   A(22,26,30)            82.9348         estimate D2E/DX2                !
 ! A55   A(27,26,28)            82.0445         estimate D2E/DX2                !
 ! A56   A(27,26,29)           149.2765         estimate D2E/DX2                !
 ! A57   A(27,26,30)            83.8497         estimate D2E/DX2                !
 ! A58   A(28,26,29)            95.2011         estimate D2E/DX2                !
 ! A59   A(28,26,30)           146.0457         estimate D2E/DX2                !
 ! A60   A(29,26,30)            81.6927         estimate D2E/DX2                !
 ! A61   A(26,27,33)            78.6597         estimate D2E/DX2                !
 ! A62   A(26,27,34)           127.3392         estimate D2E/DX2                !
 ! A63   A(33,27,34)           107.5353         estimate D2E/DX2                !
 ! A64   A(26,28,31)            78.5783         estimate D2E/DX2                !
 ! A65   A(26,28,32)           121.1998         estimate D2E/DX2                !
 ! A66   A(31,28,32)           106.9054         estimate D2E/DX2                !
 ! A67   A(26,29,36)           141.3767         estimate D2E/DX2                !
 ! A68   A(26,30,37)            98.842          estimate D2E/DX2                !
 ! A69   A(26,30,38)           123.4002         estimate D2E/DX2                !
 ! A70   A(37,30,38)           106.097          estimate D2E/DX2                !
 ! A71   L(2,1,25,3,-1)        178.8069         estimate D2E/DX2                !
 ! A72   L(2,1,25,3,-2)        184.2122         estimate D2E/DX2                !
 ! D1    D(3,1,2,6)            -69.7016         estimate D2E/DX2                !
 ! D2    D(4,1,2,6)             44.6762         estimate D2E/DX2                !
 ! D3    D(5,1,2,6)            166.7002         estimate D2E/DX2                !
 ! D4    D(6,2,25,21)           -8.3748         estimate D2E/DX2                !
 ! D5    D(2,1,3,20)           171.2576         estimate D2E/DX2                !
 ! D6    D(4,1,3,20)            73.4937         estimate D2E/DX2                !
 ! D7    D(5,1,3,20)           -94.4246         estimate D2E/DX2                !
 ! D8    D(25,1,3,20)          -12.9545         estimate D2E/DX2                !
 ! D9    D(2,1,4,15)           -13.8903         estimate D2E/DX2                !
 ! D10   D(3,1,4,15)            80.4098         estimate D2E/DX2                !
 ! D11   D(5,1,4,15)          -111.3877         estimate D2E/DX2                !
 ! D12   D(25,1,4,15)          166.7561         estimate D2E/DX2                !
 ! D13   D(2,1,5,19)           178.5789         estimate D2E/DX2                !
 ! D14   D(3,1,5,19)            85.1763         estimate D2E/DX2                !
 ! D15   D(4,1,5,19)           -81.8907         estimate D2E/DX2                !
 ! D16   D(25,1,5,19)            1.9208         estimate D2E/DX2                !
 ! D17   D(3,1,25,21)           61.2702         estimate D2E/DX2                !
 ! D18   D(4,1,25,21)          -52.9241         estimate D2E/DX2                !
 ! D19   D(5,1,25,21)         -174.7447         estimate D2E/DX2                !
 ! D20   D(1,2,6,7)            128.1712         estimate D2E/DX2                !
 ! D21   D(1,2,6,8)           -135.7911         estimate D2E/DX2                !
 ! D22   D(1,2,6,9)            -46.4618         estimate D2E/DX2                !
 ! D23   D(1,2,6,10)            52.8761         estimate D2E/DX2                !
 ! D24   D(1,2,6,11)          -132.6799         estimate D2E/DX2                !
 ! D25   D(1,2,6,13)           125.8926         estimate D2E/DX2                !
 ! D26   D(2,6,7,14)          -104.4242         estimate D2E/DX2                !
 ! D27   D(8,6,7,14)          -166.7366         estimate D2E/DX2                !
 ! D28   D(9,6,7,14)           -93.7948         estimate D2E/DX2                !
 ! D29   D(10,6,7,14)          -15.4445         estimate D2E/DX2                !
 ! D30   D(11,6,7,14)         -144.6077         estimate D2E/DX2                !
 ! D31   D(2,6,8,12)           105.1822         estimate D2E/DX2                !
 ! D32   D(7,6,8,12)           166.376          estimate D2E/DX2                !
 ! D33   D(9,6,8,12)            15.3765         estimate D2E/DX2                !
 ! D34   D(10,6,8,12)          118.9896         estimate D2E/DX2                !
 ! D35   D(13,6,8,12)          145.2022         estimate D2E/DX2                !
 ! D36   D(2,6,9,16)           161.4936         estimate D2E/DX2                !
 ! D37   D(7,6,9,16)           152.2504         estimate D2E/DX2                !
 ! D38   D(8,6,9,16)          -136.8651         estimate D2E/DX2                !
 ! D39   D(10,6,9,16)           80.9729         estimate D2E/DX2                !
 ! D40   D(11,6,9,16)         -159.9507         estimate D2E/DX2                !
 ! D41   D(13,6,9,16)          155.5181         estimate D2E/DX2                !
 ! D42   D(2,6,10,17)           -8.5052         estimate D2E/DX2                !
 ! D43   D(2,6,10,18)         -131.5931         estimate D2E/DX2                !
 ! D44   D(7,6,10,17)          -70.4067         estimate D2E/DX2                !
 ! D45   D(7,6,10,18)          166.5055         estimate D2E/DX2                !
 ! D46   D(8,6,10,17)          -20.7909         estimate D2E/DX2                !
 ! D47   D(8,6,10,18)         -143.8787         estimate D2E/DX2                !
 ! D48   D(9,6,10,17)           79.3959         estimate D2E/DX2                !
 ! D49   D(9,6,10,18)          -43.692          estimate D2E/DX2                !
 ! D50   D(11,6,10,17)         -12.471          estimate D2E/DX2                !
 ! D51   D(11,6,10,18)        -135.5588         estimate D2E/DX2                !
 ! D52   D(13,6,10,17)         -47.116          estimate D2E/DX2                !
 ! D53   D(13,6,10,18)        -170.2039         estimate D2E/DX2                !
 ! D54   D(23,21,22,26)       -114.2389         estimate D2E/DX2                !
 ! D55   D(24,21,22,26)          0.6647         estimate D2E/DX2                !
 ! D56   D(25,21,22,26)        121.9423         estimate D2E/DX2                !
 ! D57   D(22,21,23,39)       -139.8471         estimate D2E/DX2                !
 ! D58   D(24,21,23,39)        103.4213         estimate D2E/DX2                !
 ! D59   D(25,21,23,39)        -11.5161         estimate D2E/DX2                !
 ! D60   D(22,21,24,35)         40.2876         estimate D2E/DX2                !
 ! D61   D(23,21,24,35)        159.6885         estimate D2E/DX2                !
 ! D62   D(25,21,24,35)        -85.7032         estimate D2E/DX2                !
 ! D63   D(22,21,25,1)         173.113          estimate D2E/DX2                !
 ! D64   D(23,21,25,1)          47.1156         estimate D2E/DX2                !
 ! D65   D(24,21,25,1)         -65.6999         estimate D2E/DX2                !
 ! D66   D(21,22,26,27)        133.2266         estimate D2E/DX2                !
 ! D67   D(21,22,26,28)       -131.7002         estimate D2E/DX2                !
 ! D68   D(21,22,26,29)        -35.2678         estimate D2E/DX2                !
 ! D69   D(21,22,26,30)         46.5067         estimate D2E/DX2                !
 ! D70   D(22,26,27,33)         -5.6966         estimate D2E/DX2                !
 ! D71   D(22,26,27,34)       -109.2002         estimate D2E/DX2                !
 ! D72   D(28,26,27,33)        -69.5119         estimate D2E/DX2                !
 ! D73   D(28,26,27,34)       -173.0155         estimate D2E/DX2                !
 ! D74   D(29,26,27,33)         17.2788         estimate D2E/DX2                !
 ! D75   D(29,26,27,34)        -86.2248         estimate D2E/DX2                !
 ! D76   D(30,26,27,33)         79.5198         estimate D2E/DX2                !
 ! D77   D(30,26,27,34)        -23.9838         estimate D2E/DX2                !
 ! D78   D(22,26,28,31)          5.9325         estimate D2E/DX2                !
 ! D79   D(22,26,28,32)        108.9047         estimate D2E/DX2                !
 ! D80   D(27,26,28,31)         69.0904         estimate D2E/DX2                !
 ! D81   D(27,26,28,32)        172.0626         estimate D2E/DX2                !
 ! D82   D(29,26,28,31)        -80.0989         estimate D2E/DX2                !
 ! D83   D(29,26,28,32)         22.8733         estimate D2E/DX2                !
 ! D84   D(30,26,28,31)          2.7453         estimate D2E/DX2                !
 ! D85   D(30,26,28,32)        105.7175         estimate D2E/DX2                !
 ! D86   D(22,26,29,36)       -152.4074         estimate D2E/DX2                !
 ! D87   D(27,26,29,36)       -172.6721         estimate D2E/DX2                !
 ! D88   D(28,26,29,36)        -89.4985         estimate D2E/DX2                !
 ! D89   D(30,26,29,36)        124.5612         estimate D2E/DX2                !
 ! D90   D(22,26,30,37)        -46.1606         estimate D2E/DX2                !
 ! D91   D(22,26,30,38)         69.8593         estimate D2E/DX2                !
 ! D92   D(27,26,30,37)       -109.1366         estimate D2E/DX2                !
 ! D93   D(27,26,30,38)          6.8833         estimate D2E/DX2                !
 ! D94   D(28,26,30,37)        -43.2953         estimate D2E/DX2                !
 ! D95   D(28,26,30,38)         72.7245         estimate D2E/DX2                !
 ! D96   D(29,26,30,37)         43.6767         estimate D2E/DX2                !
 ! D97   D(29,26,30,38)        159.6965         estimate D2E/DX2                !
 --------------------------------------------------------------------------------
 Trust Radius=3.00D-01 FncErr=1.00D-07 GrdErr=1.00D-06 EigMax=2.50D+02 EigMin=1.00D-04
 Number of steps in this run=    234 maximum allowed number of steps=    234.
 GradGradGradGradGradGradGradGradGradGradGradGradGradGradGradGradGradGrad

                          Input orientation:                          
 ---------------------------------------------------------------------
 Center     Atomic      Atomic             Coordinates (Angstroms)
 Number     Number       Type             X           Y           Z
 ---------------------------------------------------------------------
      1         14           0       -0.152261    0.649259    0.082853
      2          8           0       -1.819911    0.776533   -0.125128
      3          8           0        0.095758    0.575498   -1.648803
      4          8           0        0.081659    2.210087    0.756980
      5          8           0       -0.294344   -0.744301    1.080808
      6         20           0       -3.133424    2.475517   -0.955969
      7          8           0       -3.403025    0.000147   -1.942085
      8          8           0       -3.897613    1.276612    1.192147
      9          8           0       -2.019129    3.912142    0.282163
     10          8           0       -1.568889    2.257701   -2.793622
     11          1           0       -2.984957    0.932501    0.912578
     12          1           0       -3.762711    1.802359    1.984994
     13          1           0       -2.657900    0.069145   -1.260898
     14          1           0       -2.971666    0.012253   -2.798776
     15          1           0       -0.696376    2.804484    0.641160
     16          1           0       -1.813032    4.838057    0.394488
     17          1           0       -0.883290    1.629557   -2.430942
     18          1           0       -1.096121    2.968175   -3.229244
     19          1           0        0.594012   -1.018677    1.312936
     20          1           0        1.023623    0.628252   -1.902122
     21         14           0        2.952315    1.246224   -0.214353
     22          8           0        4.390594    0.741011    0.308922
     23          8           0        2.665055    2.839834    0.198181
     24          8           0        2.979765    1.232381   -1.912213
     25          8           0        1.672079    0.372324    0.276945
     26         20           0        6.150081    0.142878   -1.223977
     27          8           0        6.756207    1.648719    0.722146
     28          8           0        5.664875   -1.475883    0.632081
     29          8           0        4.619830   -0.660864   -2.595508
     30          8           0        5.497806    2.275723   -2.324180
     31          1           0        4.941118   -0.813436    0.755784
     32          1           0        5.244258   -2.318794    0.458102
     33          1           0        5.775124    1.582340    0.825882
     34          1           0        6.980627    2.579561    0.688725
     35          1           0        3.458570    0.420515   -2.267547
     36          1           0        4.492119   -1.371087   -3.339993
     37          1           0        4.528403    2.156966   -2.319021
     38          1           0        5.661951    3.139303   -1.940732
     39          1           0        1.722422    2.880654    0.462701
 ---------------------------------------------------------------------
                    Distance matrix (angstroms):
                    1          2          3          4          5
     1  Si   0.000000
     2  O    1.685382   0.000000
     3  O    1.750882   2.455970   0.000000
     4  O    1.716202   2.539520   2.908586   0.000000
     5  O    1.719916   2.468719   3.056931   2.995772   0.000000
     6  Ca   3.647150   2.302642   3.810211   3.652589   4.751428
     7  O    3.884480   2.531868   3.557882   4.930701   4.399543
     8  O    3.956231   2.510406   4.950714   4.110396   4.132800
     9  O    3.764482   3.168220   4.397109   2.745133   5.029431
    10  O    3.587204   3.062308   2.628967   3.915782   5.064355
    11  H    2.965272   1.567958   4.022304   3.325744   3.174802
    12  H    4.240652   3.046212   5.440354   4.056284   4.396885
    13  H    2.901797   1.578796   2.826570   4.020031   3.425154
    14  H    4.081496   3.009827   3.323969   5.176550   4.774055
    15  H    2.291891   2.441744   3.292383   0.985931   3.598443
    16  H    4.516780   4.094634   5.097835   3.259982   5.825819
    17  H    2.795452   2.630910   1.637473   3.380974   4.279538
    18  H    4.151895   3.868165   3.105362   4.225144   5.744726
    19  H    2.202734   3.334341   3.400228   3.316099   0.958302
    20  H    2.307221   3.356394   0.963269   3.234242   3.538193
    21  Si   3.175388   4.796114   3.266104   3.180124   4.022490
    22  O    4.549402   6.225756   4.722891   4.574479   4.974998
    23  O    3.570601   4.947389   3.890997   2.717126   4.731078
    24  O    3.758977   5.141825   2.969575   4.059497   4.856463
    25  O    1.855419   3.538226   2.496913   2.477346   2.399972
    26  Ca   6.456295   8.070301   6.084609   6.709940   6.901430
    27  O    7.009604   8.661892   7.150859   6.698204   7.454224
    28  O    6.217471   7.852946   6.358118   6.691358   6.020703
    29  O    5.626979   7.045506   4.784566   6.330603   6.137700
    30  O    6.353145   7.786680   5.703422   6.231573   7.366376
    31  H    5.341800   7.001109   5.584684   5.723289   5.245997
    32  H    6.170297   7.734578   6.270808   6.874047   5.791624
    33  H    6.046208   7.696642   6.276384   5.728382   6.505128
    34  H    7.414259   9.020129   7.541998   6.909192   8.007933
    35  H    4.314488   5.707808   3.422772   4.873793   5.162620
    36  H    6.112932   7.401983   5.096794   7.004438   6.545729
    37  H    5.472732   6.857102   4.753796   5.407230   6.575338
    38  H    6.640804   8.053407   6.135212   6.267436   7.725900
    39  H    2.939021   4.161849   3.523951   1.796765   4.194008
                    6          7          8          9         10
     6  Ca   0.000000
     7  O    2.678165   0.000000
     8  O    2.575997   3.420145   0.000000
     9  O    2.199663   4.708094   3.361962   0.000000
    10  O    2.423259   3.030795   4.719306   3.521412   0.000000
    11  H    2.427840   3.032023   1.014649   3.195075   4.182980
    12  H    3.081949   4.335815   0.960841   3.223491   5.277818
    13  H    2.471787   1.011923   3.002048   4.190190   2.885302
    14  H    3.080547   0.959238   4.287592   5.060499   2.647611
    15  H    2.932276   4.675832   3.589693   1.762232   3.585802
    16  H    3.024692   5.602948   4.203050   0.955202   4.108758
    17  H    2.820336   3.040234   4.726255   3.723072   0.998072
    18  H    3.092102   3.973383   5.500767   3.751399   0.958149
    19  H    5.590268   5.254471   5.045556   5.674855   5.681251
    20  H    4.646357   4.471166   5.849225   4.981302   3.189200
    21  Si   6.252789   6.702844   6.992902   5.662941   5.302547
    22  O    7.824277   8.145944   8.352325   7.151317   6.887784
    23  O    5.923441   7.033218   6.819109   4.806088   5.216900
    24  O    6.311170   6.500715   7.545683   6.081558   4.745357
    25  O    5.388539   5.551512   5.716363   5.114231   4.846329
    26  Ca   9.575829   9.581121  10.396113   9.122050   8.155903
    27  O   10.065012  10.631365  10.670672   9.073213   9.057522
    28  O    9.774739   9.541059   9.966498   9.391335   8.831899
    29  O    8.522788   8.076515   9.520871   8.559740   6.845255
    30  O    8.741284   9.195055  10.081502   8.122512   7.082293
    31  H    8.885130   8.807107   9.092958   8.426176   8.025606
    32  H    9.755541   9.268974   9.850867   9.571432   8.828193
    33  H    9.128800   9.716141   9.684496   8.153158   8.215318
    34  H   10.247432  11.017929  10.967553   9.106957   9.237129
    35  H    7.028347   6.882160   8.174094   6.978371   5.378415
    36  H    8.867290   8.134355   9.896373   9.133941   7.085368
    37  H    7.788644   8.228092   9.170664   7.260646   6.116565
    38  H    8.875190   9.593127  10.230827   8.033526   7.334146
    39  H    5.075037   6.352206   5.889808   3.885327   4.671663
                   11         12         13         14         15
    11  H    0.000000
    12  H    1.584812   0.000000
    13  H    2.361429   3.841933   0.000000
    14  H    3.823765   5.168625   1.570591   0.000000
    15  H    2.969106   3.494647   3.866197   4.980628   0.000000
    16  H    4.110376   3.942895   5.118264   5.901504   2.333064
    17  H    4.010239   5.274601   2.636879   2.666887   3.294420
    18  H    4.986618   5.971441   3.836393   3.527102   3.894434
    19  H    4.095901   5.233636   4.287530   5.539228   4.090592
    20  H    4.907527   6.276718   3.778542   4.140746   3.763332
    21  Si   6.051413   7.087876   5.827116   6.579930   4.058697
    22  O    7.402690   8.391189   7.252379   8.024447   5.499597
    23  O    6.005907   6.751684   6.175717   6.982091   3.390678
    24  O    6.606609   7.808590   5.793151   6.139563   4.743968
    25  O    4.733478   5.873617   4.604954   5.581584   3.414328
    26  Ca   9.414738  10.550584   8.808367   9.257609   7.578711
    27  O    9.769315  10.595566   9.749509  10.474084   7.542105
    28  O    8.983239  10.072568   8.674045   9.411438   7.667277
    29  O    8.525155   9.864860   7.435015   7.623989   7.123672
    30  O    9.178132  10.224981   8.515580   8.779550   6.887722
    31  H    8.117607   9.171149   7.911449   8.713714   6.699539
    32  H    8.859879  10.022015   8.432160   9.140155   7.846822
    33  H    8.784579   9.610528   8.818180   9.597377   6.588480
    34  H   10.103256  10.849132  10.149109  10.853657   7.680445
    35  H    7.203774   8.493556   6.208704   6.465046   5.604236
    36  H    8.904917  10.323200   7.584173   7.610166   7.759217
    37  H    8.270014   9.348415   7.557881   7.815433   6.039890
    38  H    9.369118  10.296747   8.894266   9.222474   6.870705
    39  H    5.114402   5.793685   5.482937   6.395265   2.426568
                   16         17         18         19         20
    16  H    0.000000
    17  H    4.375151   0.000000
    18  H    4.140272   1.573048   0.000000
    19  H    6.398339   4.817903   6.275583   0.000000
    20  H    5.571668   2.217787   3.424881   3.637793   0.000000
    21  Si   5.998373   4.446580   5.333340   3.608875   2.636343
    22  O    7.434923   6.009178   6.898037   4.303322   4.029631
    23  O    4.907616   4.579062   5.090202   4.518850   3.463620
    24  O    6.425937   3.917910   4.621731   4.600072   2.047331
    25  O    5.665914   3.929783   5.166695   2.042153   2.287865
    26  Ca   9.384844   7.289395   8.031864   6.217318   5.193846
    27  O    9.149377   8.264638   8.888954   6.740674   6.386756
    28  O    9.789861   7.867931   8.964962   5.136755   5.691291
    29  O    8.975518   5.963006   6.800268   5.622382   3.882694
    30  O    8.210059   6.414617   6.691674   6.937498   4.786503
    31  H    8.814105   7.074402   8.162676   4.387468   4.948706
    32  H   10.051363   7.841103   9.041514   4.903655   5.662994
    33  H    8.268368   7.412396   8.098061   5.817769   5.561389
    34  H    9.083822   8.513285   8.985286   7.357024   6.782772
    35  H    7.375018   4.510014   5.306660   4.805916   2.470963
    36  H    9.604933   6.222962   7.076008   6.080229   4.253856
    37  H    7.400350   5.438484   5.755157   6.225372   3.846330
    38  H    8.013388   6.734970   6.881939   7.318412   5.274557
    39  H    4.041722   4.090006   4.645676   4.147408   3.339764
                   21         22         23         24         25
    21  Si   0.000000
    22  O    1.611739   0.000000
    23  O    1.671016   2.719339   0.000000
    24  O    1.698138   2.676812   2.671462   0.000000
    25  O    1.626062   2.743588   2.660979   2.691125   0.000000
    26  Ca   3.530215   2.409012   4.630498   3.422220   4.728416
    27  O    3.938099   2.567258   4.293113   4.623278   5.260774
    28  O    3.935009   2.577371   5.273765   4.584533   4.414115
    29  O    3.476707   3.233190   4.886791   2.596359   4.243548
    30  O    3.462768   3.242605   3.834710   2.756594   5.002496
    31  H    3.023029   1.708528   4.340249   3.892362   3.510261
    32  H    4.291218   3.180158   5.773326   4.832925   4.476092
    33  H    3.027097   1.700590   3.412892   3.928571   4.312824
    34  H    4.338276   3.198873   4.351154   4.958495   5.763865
    35  H    2.270175   2.758547   3.544374   1.007295   3.109391
    36  H    4.357859   4.217327   5.795575   3.332239   4.906562
    37  H    2.782648   2.988311   3.205414   1.848954   4.252361
    38  H    3.729110   3.525492   3.694051   3.291092   5.337916
    39  H    2.154623   3.423574   0.979895   3.152449   2.515703
                   26         27         28         29         30
    26  Ca   0.000000
    27  O    2.534234   0.000000
    28  O    2.510132   3.310930   0.000000
    29  O    2.206528   4.572210   3.489084   0.000000
    30  O    2.486953   3.355117   4.779324   3.077012   0.000000
    31  H    2.509100   3.059066   0.988920   3.370113   4.397611
    32  H    3.116045   4.254041   0.957959   3.530322   5.377264
    33  H    2.532699   0.988783   3.066340   4.251185   3.237372
    34  H    3.207126   0.958096   4.263923   5.182654   3.371746
    35  H    2.900061   4.617484   4.107548   1.620328   2.757442
    36  H    3.085199   5.544934   4.142911   1.036815   3.916951
    37  H    2.808115   3.803961   4.816447   2.832838   0.976664
    38  H    3.119386   3.241937   5.283873   3.994498   0.959034
    39  H    5.472154   5.188831   5.878013   5.503632   4.731403
                   31         32         33         34         35
    31  H    0.000000
    32  H    1.564165   0.000000
    33  H    2.537759   3.954229   0.000000
    34  H    3.959359   5.202119   1.570509   0.000000
    35  H    3.586240   4.256954   4.035537   5.079952   0.000000
    36  H    4.157880   3.986149   5.265297   6.166917   2.329850
    37  H    4.295119   5.315758   3.431461   3.903655   2.040209
    38  H    4.838899   5.976596   3.176648   2.994372   3.514755
    39  H    4.908381   6.279937   4.271055   5.271666   4.064572
                   36         37         38         39
    36  H    0.000000
    37  H    3.672990   0.000000
    38  H    4.865188   1.546939   0.000000
    39  H    6.341057   4.016868   4.622043   0.000000
 Symmetry turned off by external request.
 Stoichiometry    Ca2H19O16Si2(1-)
 Framework group  C1[X(Ca2H19O16Si2)]
 Deg. of freedom   111
 Full point group                 C1      NOp   1
 Rotational constants (GHZ):           0.4364275           0.0910922           0.0903865
 Standard basis: 6-311++G(d,p) (5D, 7F)
   631 basis functions,   997 primitive gaussians,   653 cartesian basis functions
   108 alpha electrons      108 beta electrons
       nuclear repulsion energy      2926.1553660153 Hartrees.
 NAtoms=   39 NActive=   39 NUniq=   39 SFac= 1.00D+00 NAtFMM=   60 NAOKFM=F Big=F
 Integral buffers will be    131072 words long.
 Raffenetti 2 integral format.
 Two-electron integral symmetry is turned off.
 Nuclear repulsion after empirical dispersion term =     2926.1226846942 Hartrees.
 ------------------------------------------------------------------------------
 Polarizable Continuum Model (PCM)
 =================================
 Model                : C-PCM.
 Atomic radii         : UFF (Universal Force Field).
 Polarization charges : Total charges.
 Charge compensation  : None.
 Solution method      : On-the-fly selection.
 Cavity type          : Scaled VdW (van der Waals Surface) (Alpha=1.100).
 Cavity algorithm     : GePol (No added spheres)
                        Default sphere list used, NSphG=   39.
                        Lebedev-Laikov grids with approx.  5.0 points / Ang**2.
                        Smoothing algorithm: York/Karplus (Gamma=1.0000).
                        Polarization charges: spherical gaussians, with
                                              point-specific exponents (IZeta= 3).
                        Self-potential: point-specific (ISelfS= 7).
                        Self-field    : sphere-specific E.n sum rule (ISelfD= 2).
 1st derivatives      : Analytical E(r).r(x)/FMM algorithm (CHGder, D1EAlg=3).
                        Cavity 1st derivative terms included.
 Solvent              : Water, Eps=  78.355300 Eps(inf)=   1.777849
 ------------------------------------------------------------------------------
 One-electron integrals computed using PRISM.
 NBasis=   631 RedAO= T EigKep=  6.56D-05  NBF=   631
 NBsUse=   631 1.00D-06 EigRej= -1.00D+00 NBFU=   631
 ExpMin= 7.10D-03 ExpMax= 2.03D+05 ExpMxC= 6.92D+03 IAcc=3 IRadAn=         5 AccDes= 0.00D+00
 Harris functional with IExCor= 4639 and IRadAn=       5 diagonalized for initial guess.
 HarFok:  IExCor= 4639 AccDes= 0.00D+00 IRadAn=         5 IDoV= 1 UseB2=F ITyADJ=14
 ICtDFT=  3500011 ScaDFX=  1.000000  1.000000  1.000000  1.000000
 FoFCou: FMM=F IPFlag=           0 FMFlag=      100000 FMFlg1=           0
         NFxFlg=           0 DoJE=T BraDBF=F KetDBF=T FulRan=T
         wScrn=  0.000000 ICntrl=       500 IOpCl=  0 I1Cent=   200000004 NGrid=           0
         NMat0=    1 NMatS0=      1 NMatT0=    0 NMatD0=    1 NMtDS0=    0 NMtDT0=    0
 Symmetry not used in FoFCou.
 Requested convergence on RMS density matrix=1.00D-08 within 800 cycles.
 Requested convergence on MAX density matrix=1.00D-06.
 Requested convergence on             energy=1.00D-06.
 No special actions if energy rises.
 Inv3:  Mode=1 IEnd=    33087123.
 Iteration    1 A*A^-1 deviation from unit magnitude is 1.43D-14 for   2781.
 Iteration    1 A*A^-1 deviation from orthogonality  is 7.06D-15 for   2970   2781.
 Iteration    1 A^-1*A deviation from unit magnitude is 1.39D-14 for   2781.
 Iteration    1 A^-1*A deviation from orthogonality  is 1.10D-14 for   2970   2781.
 Error on total polarization charges =  0.02399
 SCF Done:  E(RwB97XD) =  -3150.31582166     A.U. after   14 cycles
            NFock= 14  Conv=0.44D-08     -V/T= 2.0022

 **********************************************************************

            Population analysis using the SCF Density.

 **********************************************************************

 Alpha  occ. eigenvalues -- -145.48073-145.46485 -66.27835 -66.26148 -19.26067
 Alpha  occ. eigenvalues --  -19.25019 -19.24911 -19.24628 -19.22975 -19.22575
 Alpha  occ. eigenvalues --  -19.21034 -19.20895 -19.20577 -19.19842 -19.19178
 Alpha  occ. eigenvalues --  -19.17512 -19.17099 -19.17019 -19.15840 -19.13605
 Alpha  occ. eigenvalues --  -15.47637 -15.46037 -12.59551 -12.59538 -12.59490
 Alpha  occ. eigenvalues --  -12.57946 -12.57934 -12.57901  -5.39646  -5.38802
 Alpha  occ. eigenvalues --   -3.74295  -3.74213  -3.74058  -3.73346  -3.73339
 Alpha  occ. eigenvalues --   -3.73206  -1.82721  -1.81243  -1.13314  -1.12550
 Alpha  occ. eigenvalues --   -1.11934  -1.11905  -1.10468  -1.09798  -1.09492
 Alpha  occ. eigenvalues --   -1.09009  -1.08887  -1.08581  -1.08245  -1.07483
 Alpha  occ. eigenvalues --   -1.07108  -1.06867  -1.05853  -1.05180  -1.03880
 Alpha  occ. eigenvalues --   -1.00308  -0.98649  -0.97745  -0.97155  -0.95298
 Alpha  occ. eigenvalues --   -0.64072  -0.63707  -0.62949  -0.62657  -0.62438
 Alpha  occ. eigenvalues --   -0.60668  -0.60082  -0.59140  -0.56379  -0.54972
 Alpha  occ. eigenvalues --   -0.54703  -0.53376  -0.50945  -0.50416  -0.49601
 Alpha  occ. eigenvalues --   -0.49189  -0.48554  -0.48329  -0.47716  -0.47089
 Alpha  occ. eigenvalues --   -0.46188  -0.45918  -0.45469  -0.44170  -0.43327
 Alpha  occ. eigenvalues --   -0.42713  -0.42074  -0.41906  -0.41511  -0.41078
 Alpha  occ. eigenvalues --   -0.40594  -0.40015  -0.39572  -0.38985  -0.38635
 Alpha  occ. eigenvalues --   -0.37888  -0.37326  -0.36497  -0.36010  -0.35557
 Alpha  occ. eigenvalues --   -0.35238  -0.34277  -0.34039  -0.33628  -0.33254
 Alpha  occ. eigenvalues --   -0.32915  -0.32679  -0.31869
 Alpha virt. eigenvalues --    0.01452   0.01574   0.01953   0.01987   0.02354
 Alpha virt. eigenvalues --    0.02365   0.02402   0.03316   0.05461   0.05634
 Alpha virt. eigenvalues --    0.06708   0.06837   0.06967   0.07154   0.07218
 Alpha virt. eigenvalues --    0.07720   0.08075   0.08399   0.08580   0.08914
 Alpha virt. eigenvalues --    0.09397   0.09862   0.10161   0.10495   0.11040
 Alpha virt. eigenvalues --    0.11715   0.12144   0.12557   0.12797   0.13066
 Alpha virt. eigenvalues --    0.13426   0.13596   0.14548   0.14829   0.15157
 Alpha virt. eigenvalues --    0.16166   0.16619   0.16729   0.17380   0.17468
 Alpha virt. eigenvalues --    0.17570   0.17729   0.18237   0.18360   0.18393
 Alpha virt. eigenvalues --    0.18747   0.18955   0.19271   0.19912   0.20865
 Alpha virt. eigenvalues --    0.21712   0.21879   0.22033   0.22258   0.22711
 Alpha virt. eigenvalues --    0.22945   0.23568   0.23596   0.23970   0.24238
 Alpha virt. eigenvalues --    0.24364   0.25053   0.25202   0.25395   0.25702
 Alpha virt. eigenvalues --    0.26127   0.26267   0.26619   0.26817   0.27228
 Alpha virt. eigenvalues --    0.27622   0.27727   0.28092   0.28940   0.29195
 Alpha virt. eigenvalues --    0.29443   0.29769   0.30093   0.30539   0.30764
 Alpha virt. eigenvalues --    0.30877   0.31243   0.31446   0.31613   0.32141
 Alpha virt. eigenvalues --    0.32498   0.32691   0.33002   0.33367   0.33400
 Alpha virt. eigenvalues --    0.33788   0.33949   0.34233   0.34297   0.34689
 Alpha virt. eigenvalues --    0.34918   0.35087   0.35324   0.35647   0.36087
 Alpha virt. eigenvalues --    0.36525   0.36672   0.37157   0.37268   0.37502
 Alpha virt. eigenvalues --    0.37983   0.38258   0.38497   0.38634   0.39251
 Alpha virt. eigenvalues --    0.39316   0.39745   0.39836   0.40211   0.40435
 Alpha virt. eigenvalues --    0.41111   0.41319   0.41931   0.42390   0.42564
 Alpha virt. eigenvalues --    0.42773   0.43197   0.44167   0.44726   0.44933
 Alpha virt. eigenvalues --    0.45187   0.45676   0.45692   0.46493   0.47113
 Alpha virt. eigenvalues --    0.47894   0.48023   0.48752   0.49083   0.49397
 Alpha virt. eigenvalues --    0.49878   0.50310   0.50675   0.50802   0.51673
 Alpha virt. eigenvalues --    0.52198   0.52866   0.53889   0.54098   0.54893
 Alpha virt. eigenvalues --    0.55370   0.56130   0.57033   0.57608   0.58544
 Alpha virt. eigenvalues --    0.59386   0.60073   0.62465   0.63299   0.63950
 Alpha virt. eigenvalues --    0.64329   0.64668   0.64956   0.65598   0.65909
 Alpha virt. eigenvalues --    0.66915   0.67226   0.67820   0.68000   0.68371
 Alpha virt. eigenvalues --    0.69326   0.70942   0.71185   0.71543   0.73704
 Alpha virt. eigenvalues --    0.75347   0.76203   0.76526   0.77395   0.79488
 Alpha virt. eigenvalues --    0.81134   0.82497   0.84439   0.86628   0.87205
 Alpha virt. eigenvalues --    0.89031   0.90801   0.90962   0.91382   0.92671
 Alpha virt. eigenvalues --    0.97034   0.98991   0.99671   1.01913   1.04016
 Alpha virt. eigenvalues --    1.05568   1.06510   1.08006   1.09248   1.09994
 Alpha virt. eigenvalues --    1.10531   1.11427   1.11615   1.12074   1.13340
 Alpha virt. eigenvalues --    1.13952   1.14485   1.15625   1.16181   1.16345
 Alpha virt. eigenvalues --    1.17807   1.18297   1.18661   1.19258   1.19432
 Alpha virt. eigenvalues --    1.19960   1.20469   1.20889   1.21888   1.22340
 Alpha virt. eigenvalues --    1.22892   1.23312   1.24702   1.25536   1.25786
 Alpha virt. eigenvalues --    1.26339   1.26867   1.27248   1.27973   1.28789
 Alpha virt. eigenvalues --    1.29046   1.29440   1.29824   1.30370   1.30581
 Alpha virt. eigenvalues --    1.31164   1.31369   1.31602   1.32401   1.32920
 Alpha virt. eigenvalues --    1.33705   1.34168   1.34544   1.35530   1.36051
 Alpha virt. eigenvalues --    1.36163   1.36912   1.37234   1.38138   1.39012
 Alpha virt. eigenvalues --    1.39708   1.40535   1.42747   1.43871   1.44774
 Alpha virt. eigenvalues --    1.45643   1.46836   1.48069   1.48394   1.48825
 Alpha virt. eigenvalues --    1.49127   1.50206   1.51672   1.52535   1.53157
 Alpha virt. eigenvalues --    1.54196   1.55643   1.55743   1.56797   1.57049
 Alpha virt. eigenvalues --    1.57315   1.57694   1.58497   1.59974   1.61090
 Alpha virt. eigenvalues --    1.61293   1.61881   1.62265   1.62964   1.64116
 Alpha virt. eigenvalues --    1.65294   1.66475   1.67838   1.68418   1.68603
 Alpha virt. eigenvalues --    1.69465   1.69856   1.71666   1.72822   1.73674
 Alpha virt. eigenvalues --    1.74081   1.74466   1.76707   1.77058   1.77808
 Alpha virt. eigenvalues --    1.78561   1.78974   1.79825   1.81705   1.82540
 Alpha virt. eigenvalues --    1.83555   1.85027   1.86302   1.87283   1.88282
 Alpha virt. eigenvalues --    1.89644   1.91742   1.93114   1.94662   1.95604
 Alpha virt. eigenvalues --    1.97009   1.99009   2.00949   2.03164   2.03576
 Alpha virt. eigenvalues --    2.04596   2.07102   2.10509   2.11304   2.15777
 Alpha virt. eigenvalues --    2.16364   2.16805   2.17685   2.18979   2.19487
 Alpha virt. eigenvalues --    2.23917   2.24428   2.26384   2.28573   2.29245
 Alpha virt. eigenvalues --    2.31035   2.31633   2.35267   2.38411   2.39033
 Alpha virt. eigenvalues --    2.40205   2.44553   2.45281   2.47501   2.58551
 Alpha virt. eigenvalues --    2.62059   2.64517   2.65844   2.66927   2.70308
 Alpha virt. eigenvalues --    2.72810   2.73154   2.76192   2.78636   2.81729
 Alpha virt. eigenvalues --    2.83392   2.84233   2.85459   2.89205   2.91994
 Alpha virt. eigenvalues --    2.92225   2.94153   2.95880   2.97260   2.99595
 Alpha virt. eigenvalues --    3.00265   3.01304   3.01355   3.02133   3.02674
 Alpha virt. eigenvalues --    3.03535   3.05277   3.06730   3.09640   3.10883
 Alpha virt. eigenvalues --    3.10936   3.12568   3.13285   3.13428   3.14622
 Alpha virt. eigenvalues --    3.14933   3.15630   3.16415   3.16856   3.17611
 Alpha virt. eigenvalues --    3.18200   3.19369   3.19802   3.20088   3.20995
 Alpha virt. eigenvalues --    3.21855   3.22225   3.22426   3.23357   3.24013
 Alpha virt. eigenvalues --    3.24167   3.25162   3.25661   3.26232   3.27496
 Alpha virt. eigenvalues --    3.27551   3.28874   3.29139   3.29270   3.30925
 Alpha virt. eigenvalues --    3.32465   3.33455   3.35404   3.36587   3.39814
 Alpha virt. eigenvalues --    3.40784   3.41252   3.41452   3.42803   3.43065
 Alpha virt. eigenvalues --    3.44187   3.44950   3.45315   3.49066   3.49694
 Alpha virt. eigenvalues --    3.50051   3.58104   3.58701   3.65022   3.82533
 Alpha virt. eigenvalues --    3.83024   3.83887   3.84207   3.84814   3.86265
 Alpha virt. eigenvalues --    3.98010   3.99322   4.01996   4.02592   4.03339
 Alpha virt. eigenvalues --    4.04182   4.04589   4.05599   4.06103   4.07183
 Alpha virt. eigenvalues --    4.08628   4.09221   4.10416   4.49339   4.50589
 Alpha virt. eigenvalues --    4.56411   4.56778   4.57795   4.64851   5.13942
 Alpha virt. eigenvalues --    5.14337   5.15240   5.16833   5.17502   5.18148
 Alpha virt. eigenvalues --    5.19280   5.19980   5.20971   5.21529   5.21951
 Alpha virt. eigenvalues --    5.23038   5.23821   5.25240   5.26111   5.27050
 Alpha virt. eigenvalues --    5.28156   5.29393   5.30998   5.31670   5.34470
 Alpha virt. eigenvalues --    5.37982   5.39975   5.40829   5.42568   5.44097
 Alpha virt. eigenvalues --    5.45898   5.47804   5.47903   5.50953   5.52112
 Alpha virt. eigenvalues --    5.53800   5.56287   5.57999   5.61753   5.64066
 Alpha virt. eigenvalues --    5.71247   5.72993   5.73810   5.76239   5.77333
 Alpha virt. eigenvalues --    5.78328   5.79240   5.79826   5.81093   5.82154
 Alpha virt. eigenvalues --    5.84050   5.89224   6.21342   6.23106  11.62902
 Alpha virt. eigenvalues --   11.66490  11.70096  11.72511  11.83115  11.90745
 Alpha virt. eigenvalues --   14.93960  14.94344  50.03326  50.03692  50.04755
 Alpha virt. eigenvalues --   50.05228  50.06124  50.07782  50.09945  50.11736
 Alpha virt. eigenvalues --   50.13323  50.13435  50.15177  50.16327  50.17368
 Alpha virt. eigenvalues --   50.18460  50.19358  50.25420 108.66688 108.67948
 Alpha virt. eigenvalues --  108.71369 108.71614 108.72398 108.77573 141.65030
 Alpha virt. eigenvalues --  141.70551 318.04531 318.04971
          Condensed to atoms (all electrons):
               1          2          3          4          5          6
     1  Si  13.124761   0.114385  -0.178488   0.087255   0.109375   0.028033
     2  O    0.114385   9.360795  -0.111905  -0.084077  -0.094759   0.059839
     3  O   -0.178488  -0.111905   8.919154   0.035892   0.008688  -0.011417
     4  O    0.087255  -0.084077   0.035892   8.691386   0.000431  -0.005629
     5  O    0.109375  -0.094759   0.008688   0.000431   8.362358   0.010988
     6  Ca   0.028033   0.059839  -0.011417  -0.005629   0.010988  18.502550
     7  O   -0.010311  -0.087324  -0.000216  -0.001863  -0.002090   0.021750
     8  O   -0.003167  -0.076816   0.001313  -0.002535  -0.006818   0.020002
     9  O   -0.006542  -0.013744   0.001806   0.011171  -0.002387   0.045460
    10  O    0.000228  -0.048585   0.017981  -0.007672  -0.000781   0.014737
    11  H    0.004960  -0.004687  -0.003416  -0.007715   0.005846  -0.018169
    12  H    0.000978   0.005951   0.000346   0.001629  -0.000598  -0.012848
    13  H    0.000953   0.016126   0.018780   0.010320  -0.014330  -0.026579
    14  H   -0.004467   0.008700   0.002592  -0.000381   0.000793  -0.010844
    15  H   -0.062154  -0.044696   0.031369   0.103866  -0.014322  -0.034756
    16  H    0.001009   0.001471  -0.000392   0.005516  -0.000044  -0.014706
    17  H    0.049551   0.005956  -0.041885   0.009986   0.003713   0.013346
    18  H    0.002799   0.001132   0.006052  -0.000489  -0.000350  -0.006843
    19  H    0.043872   0.018564  -0.007482  -0.007493   0.193199  -0.003056
    20  H    0.036405   0.031551   0.032219  -0.027186  -0.015894   0.001577
    21  Si  -0.486597  -0.010612   0.061280   0.031255   0.004530  -0.000397
    22  O   -0.021239  -0.000327   0.005556  -0.007399  -0.003391   0.000219
    23  O    0.036783  -0.000449  -0.005101  -0.001275   0.000748   0.000017
    24  O   -0.006800   0.000740   0.068832   0.000162   0.002925  -0.000566
    25  O    0.079082  -0.104791   0.011988  -0.016765   0.061309  -0.001958
    26  Ca   0.003368   0.000505  -0.002032  -0.001801  -0.000862  -0.000591
    27  O    0.002113   0.000000   0.000017  -0.000005  -0.000005  -0.000034
    28  O   -0.002488   0.000005  -0.000011  -0.000045  -0.000199   0.000061
    29  O   -0.003963   0.000001   0.001686  -0.000016   0.000087  -0.000026
    30  O    0.000448  -0.000001   0.000093   0.000014  -0.000010  -0.000064
    31  H    0.007800  -0.000055   0.000491   0.000020   0.000343   0.000055
    32  H   -0.001510  -0.000031   0.000044   0.000027   0.000076   0.000107
    33  H   -0.010227  -0.000135   0.000362   0.000523   0.000126   0.000246
    34  H    0.000454   0.000002   0.000004   0.000017  -0.000001   0.000060
    35  H    0.039342   0.000233  -0.022435  -0.000997   0.002253  -0.000119
    36  H    0.000095   0.000012   0.000408   0.000030  -0.000005   0.000094
    37  H   -0.001627   0.000085  -0.000411   0.000748  -0.000001   0.000402
    38  H   -0.001558   0.000007  -0.000025   0.000020   0.000003   0.000035
    39  H    0.022384   0.004716  -0.008479   0.020782   0.002592   0.002860
               7          8          9         10         11         12
     1  Si  -0.010311  -0.003167  -0.006542   0.000228   0.004960   0.000978
     2  O   -0.087324  -0.076816  -0.013744  -0.048585  -0.004687   0.005951
     3  O   -0.000216   0.001313   0.001806   0.017981  -0.003416   0.000346
     4  O   -0.001863  -0.002535   0.011171  -0.007672  -0.007715   0.001629
     5  O   -0.002090  -0.006818  -0.002387  -0.000781   0.005846  -0.000598
     6  Ca   0.021750   0.020002   0.045460   0.014737  -0.018169  -0.012848
     7  O    8.098308   0.003671  -0.002427   0.005258  -0.010571  -0.000997
     8  O    0.003671   8.081297   0.014463  -0.001078   0.258735   0.304560
     9  O   -0.002427   0.014463   8.861488   0.001302  -0.009488   0.006200
    10  O    0.005258  -0.001078   0.001302   8.138055  -0.000179  -0.000134
    11  H   -0.010571   0.258735  -0.009488  -0.000179   0.455680  -0.015610
    12  H   -0.000997   0.304560   0.006200  -0.000134  -0.015610   0.426801
    13  H    0.241543  -0.011309   0.003954  -0.004511   0.005410   0.004187
    14  H    0.297693  -0.000915  -0.000363   0.008991   0.003025   0.000018
    15  H    0.000380   0.003376  -0.043990   0.007989   0.007661  -0.005454
    16  H    0.000292   0.001423   0.228698  -0.000506  -0.001335   0.001269
    17  H    0.001353  -0.002711  -0.006407   0.195924   0.006170  -0.000450
    18  H    0.002842   0.000110   0.002162   0.302906  -0.000202   0.000015
    19  H   -0.000479  -0.000202  -0.000107  -0.000094   0.001549   0.000551
    20  H    0.002020   0.001298  -0.001187  -0.017204  -0.005331   0.000230
    21  Si   0.000504  -0.000135  -0.007169   0.007514  -0.008023  -0.000101
    22  O    0.000001  -0.000001  -0.000023   0.000109  -0.000167   0.000005
    23  O   -0.000031   0.000063   0.002933  -0.000149  -0.000091   0.000073
    24  O   -0.000025  -0.000007   0.000189   0.000646   0.000509  -0.000014
    25  O    0.000346   0.001139   0.001783   0.004955   0.006705  -0.000482
    26  Ca   0.000016  -0.000012   0.000015   0.000075   0.000034   0.000106
    27  O   -0.000000  -0.000000  -0.000000   0.000000   0.000001  -0.000000
    28  O   -0.000000  -0.000000  -0.000000   0.000000  -0.000009   0.000000
    29  O    0.000001  -0.000000  -0.000001   0.000011  -0.000002  -0.000000
    30  O    0.000000  -0.000000  -0.000001   0.000019   0.000005  -0.000000
    31  H    0.000005  -0.000004   0.000006   0.000029   0.000111  -0.000006
    32  H   -0.000000   0.000000   0.000000  -0.000001  -0.000007   0.000000
    33  H   -0.000001  -0.000001   0.000008   0.000021  -0.000019  -0.000000
    34  H    0.000000   0.000000  -0.000000  -0.000000   0.000001  -0.000000
    35  H   -0.000031  -0.000049   0.000030  -0.000735   0.000390  -0.000012
    36  H   -0.000000   0.000000   0.000001  -0.000003  -0.000001  -0.000000
    37  H   -0.000004   0.000001   0.000015  -0.000148  -0.000044   0.000001
    38  H    0.000000  -0.000000   0.000001   0.000003  -0.000003  -0.000000
    39  H   -0.000045  -0.000479  -0.001536  -0.004017  -0.000135   0.000247
              13         14         15         16         17         18
     1  Si   0.000953  -0.004467  -0.062154   0.001009   0.049551   0.002799
     2  O    0.016126   0.008700  -0.044696   0.001471   0.005956   0.001132
     3  O    0.018780   0.002592   0.031369  -0.000392  -0.041885   0.006052
     4  O    0.010320  -0.000381   0.103866   0.005516   0.009986  -0.000489
     5  O   -0.014330   0.000793  -0.014322  -0.000044   0.003713  -0.000350
     6  Ca  -0.026579  -0.010844  -0.034756  -0.014706   0.013346  -0.006843
     7  O    0.241543   0.297693   0.000380   0.000292   0.001353   0.002842
     8  O   -0.011309  -0.000915   0.003376   0.001423  -0.002711   0.000110
     9  O    0.003954  -0.000363  -0.043990   0.228698  -0.006407   0.002162
    10  O   -0.004511   0.008991   0.007989  -0.000506   0.195924   0.302906
    11  H    0.005410   0.003025   0.007661  -0.001335   0.006170  -0.000202
    12  H    0.004187   0.000018  -0.005454   0.001269  -0.000450   0.000015
    13  H    0.461991  -0.010017   0.003792  -0.000495   0.006915  -0.002901
    14  H   -0.010017   0.429192   0.000246   0.000054  -0.010973   0.001435
    15  H    0.003792   0.000246   0.614771  -0.004694  -0.014470   0.001819
    16  H   -0.000495   0.000054  -0.004694   0.482507   0.000066   0.000358
    17  H    0.006915  -0.010973  -0.014470   0.000066   0.514143  -0.021157
    18  H   -0.002901   0.001435   0.001819   0.000358  -0.021157   0.399522
    19  H    0.003260   0.000315  -0.002177   0.000196  -0.001102   0.000112
    20  H   -0.002346   0.003554  -0.007117   0.000698  -0.022031  -0.001713
    21  Si  -0.005970   0.000886   0.049624   0.000159  -0.017386  -0.001840
    22  O    0.000127   0.000005   0.000246   0.000006  -0.001660   0.000170
    23  O    0.000260  -0.000047  -0.017755   0.000749   0.001260  -0.000164
    24  O    0.000219  -0.000039   0.001805  -0.000075  -0.000748  -0.000084
    25  O    0.004945  -0.000925   0.031138  -0.000447   0.003628  -0.000318
    26  Ca   0.000247   0.000054   0.000163   0.000155  -0.000774   0.000032
    27  O    0.000001  -0.000000  -0.000001   0.000001   0.000003   0.000002
    28  O    0.000001  -0.000001  -0.000030   0.000000   0.000028  -0.000001
    29  O   -0.000039   0.000009   0.000156  -0.000001   0.000055  -0.000000
    30  O    0.000010   0.000003   0.000303  -0.000007  -0.000365   0.000062
    31  H   -0.000007   0.000004   0.000217  -0.000008  -0.000068   0.000004
    32  H   -0.000004  -0.000001  -0.000013   0.000000   0.000020  -0.000001
    33  H   -0.000005   0.000001   0.000275  -0.000017   0.000069  -0.000021
    34  H   -0.000001   0.000000   0.000006  -0.000000  -0.000005   0.000001
    35  H    0.000058  -0.000011  -0.000554  -0.000050   0.006170  -0.000360
    36  H   -0.000022   0.000003  -0.000008   0.000000  -0.000006   0.000017
    37  H   -0.000141  -0.000004  -0.001004   0.000026   0.000368  -0.000081
    38  H   -0.000009   0.000001  -0.000010  -0.000004   0.000093  -0.000021
    39  H   -0.000054  -0.000044  -0.032574  -0.001658   0.002632  -0.000111
              19         20         21         22         23         24
     1  Si   0.043872   0.036405  -0.486597  -0.021239   0.036783  -0.006800
     2  O    0.018564   0.031551  -0.010612  -0.000327  -0.000449   0.000740
     3  O   -0.007482   0.032219   0.061280   0.005556  -0.005101   0.068832
     4  O   -0.007493  -0.027186   0.031255  -0.007399  -0.001275   0.000162
     5  O    0.193199  -0.015894   0.004530  -0.003391   0.000748   0.002925
     6  Ca  -0.003056   0.001577  -0.000397   0.000219   0.000017  -0.000566
     7  O   -0.000479   0.002020   0.000504   0.000001  -0.000031  -0.000025
     8  O   -0.000202   0.001298  -0.000135  -0.000001   0.000063  -0.000007
     9  O   -0.000107  -0.001187  -0.007169  -0.000023   0.002933   0.000189
    10  O   -0.000094  -0.017204   0.007514   0.000109  -0.000149   0.000646
    11  H    0.001549  -0.005331  -0.008023  -0.000167  -0.000091   0.000509
    12  H    0.000551   0.000230  -0.000101   0.000005   0.000073  -0.000014
    13  H    0.003260  -0.002346  -0.005970   0.000127   0.000260   0.000219
    14  H    0.000315   0.003554   0.000886   0.000005  -0.000047  -0.000039
    15  H   -0.002177  -0.007117   0.049624   0.000246  -0.017755   0.001805
    16  H    0.000196   0.000698   0.000159   0.000006   0.000749  -0.000075
    17  H   -0.001102  -0.022031  -0.017386  -0.001660   0.001260  -0.000748
    18  H    0.000112  -0.001713  -0.001840   0.000170  -0.000164  -0.000084
    19  H    0.494262  -0.000059  -0.017222  -0.001282   0.002888   0.000326
    20  H   -0.000059   0.597856   0.057012   0.006039  -0.006233  -0.041535
    21  Si  -0.017222   0.057012  12.986190   0.014807   0.013208  -0.056231
    22  O   -0.001282   0.006039   0.014807   9.188304  -0.065915  -0.013738
    23  O    0.002888  -0.006233   0.013208  -0.065915   8.379851   0.040150
    24  O    0.000326  -0.041535  -0.056231  -0.013738   0.040150   8.587769
    25  O   -0.012083  -0.025709   0.155868   0.043022   0.012621   0.080962
    26  Ca   0.001087   0.005332   0.003596   0.042767   0.002368  -0.030106
    27  O   -0.000002  -0.000063  -0.003714  -0.031633  -0.001956  -0.008932
    28  O    0.000010  -0.000531  -0.004585  -0.031314  -0.000606  -0.003060
    29  O   -0.000445  -0.005000  -0.005718   0.010661  -0.004906  -0.055138
    30  O    0.000009  -0.000035   0.017437   0.010923  -0.010347   0.043717
    31  H   -0.001712  -0.001113   0.020305  -0.035293   0.000922   0.003998
    32  H   -0.000064   0.000139   0.002786  -0.000316   0.000513  -0.000005
    33  H    0.000075  -0.001435   0.012657  -0.028585  -0.013328   0.014758
    34  H   -0.000041   0.000053   0.002336  -0.000239   0.000316   0.000131
    35  H    0.000994  -0.030535  -0.000198  -0.062796   0.023984   0.252816
    36  H   -0.000096  -0.001463   0.001128   0.000661  -0.000219   0.002115
    37  H   -0.000172   0.004840   0.023755  -0.027278  -0.001968  -0.036476
    38  H    0.000013  -0.000902   0.010854  -0.007258  -0.001671  -0.011847
    39  H   -0.000288   0.005392  -0.048703   0.001043   0.279319   0.012657
              25         26         27         28         29         30
     1  Si   0.079082   0.003368   0.002113  -0.002488  -0.003963   0.000448
     2  O   -0.104791   0.000505   0.000000   0.000005   0.000001  -0.000001
     3  O    0.011988  -0.002032   0.000017  -0.000011   0.001686   0.000093
     4  O   -0.016765  -0.001801  -0.000005  -0.000045  -0.000016   0.000014
     5  O    0.061309  -0.000862  -0.000005  -0.000199   0.000087  -0.000010
     6  Ca  -0.001958  -0.000591  -0.000034   0.000061  -0.000026  -0.000064
     7  O    0.000346   0.000016  -0.000000  -0.000000   0.000001   0.000000
     8  O    0.001139  -0.000012  -0.000000  -0.000000  -0.000000  -0.000000
     9  O    0.001783   0.000015  -0.000000  -0.000000  -0.000001  -0.000001
    10  O    0.004955   0.000075   0.000000   0.000000   0.000011   0.000019
    11  H    0.006705   0.000034   0.000001  -0.000009  -0.000002   0.000005
    12  H   -0.000482   0.000106  -0.000000   0.000000  -0.000000  -0.000000
    13  H    0.004945   0.000247   0.000001   0.000001  -0.000039   0.000010
    14  H   -0.000925   0.000054  -0.000000  -0.000001   0.000009   0.000003
    15  H    0.031138   0.000163  -0.000001  -0.000030   0.000156   0.000303
    16  H   -0.000447   0.000155   0.000001   0.000000  -0.000001  -0.000007
    17  H    0.003628  -0.000774   0.000003   0.000028   0.000055  -0.000365
    18  H   -0.000318   0.000032   0.000002  -0.000001  -0.000000   0.000062
    19  H   -0.012083   0.001087  -0.000002   0.000010  -0.000445   0.000009
    20  H   -0.025709   0.005332  -0.000063  -0.000531  -0.005000  -0.000035
    21  Si   0.155868   0.003596  -0.003714  -0.004585  -0.005718   0.017437
    22  O    0.043022   0.042767  -0.031633  -0.031314   0.010661   0.010923
    23  O    0.012621   0.002368  -0.001956  -0.000606  -0.004906  -0.010347
    24  O    0.080962  -0.030106  -0.008932  -0.003060  -0.055138   0.043717
    25  O    8.659780  -0.017087   0.001988   0.003445  -0.004016   0.001427
    26  Ca  -0.017087  18.479056   0.024503   0.030022   0.054934   0.007948
    27  O    0.001988   0.024503   8.006384  -0.001462  -0.002926   0.027068
    28  O    0.003445   0.030022  -0.001462   7.963777   0.005241  -0.002331
    29  O   -0.004016   0.054934  -0.002926   0.005241   8.848234  -0.005680
    30  O    0.001427   0.007948   0.027068  -0.002331  -0.005680   7.940676
    31  H   -0.007523  -0.009580   0.001879   0.286095  -0.011111   0.002490
    32  H   -0.000625  -0.014268  -0.001547   0.321550   0.003256  -0.000288
    33  H   -0.001437  -0.020988   0.270783  -0.000984   0.003269  -0.018410
    34  H    0.000367  -0.014913   0.307067  -0.000898  -0.000133   0.002396
    35  H   -0.014864  -0.009230   0.004487  -0.001394   0.016323  -0.018046
    36  H    0.001123  -0.014478   0.000098  -0.000355   0.220082  -0.002229
    37  H    0.001614  -0.005194  -0.003337   0.000361  -0.002228   0.254899
    38  H    0.000582  -0.012613  -0.001985   0.000331  -0.001828   0.306931
    39  H   -0.014234  -0.001003  -0.000531   0.000225  -0.000080  -0.000070
              31         32         33         34         35         36
     1  Si   0.007800  -0.001510  -0.010227   0.000454   0.039342   0.000095
     2  O   -0.000055  -0.000031  -0.000135   0.000002   0.000233   0.000012
     3  O    0.000491   0.000044   0.000362   0.000004  -0.022435   0.000408
     4  O    0.000020   0.000027   0.000523   0.000017  -0.000997   0.000030
     5  O    0.000343   0.000076   0.000126  -0.000001   0.002253  -0.000005
     6  Ca   0.000055   0.000107   0.000246   0.000060  -0.000119   0.000094
     7  O    0.000005  -0.000000  -0.000001   0.000000  -0.000031  -0.000000
     8  O   -0.000004   0.000000  -0.000001   0.000000  -0.000049   0.000000
     9  O    0.000006   0.000000   0.000008  -0.000000   0.000030   0.000001
    10  O    0.000029  -0.000001   0.000021  -0.000000  -0.000735  -0.000003
    11  H    0.000111  -0.000007  -0.000019   0.000001   0.000390  -0.000001
    12  H   -0.000006   0.000000  -0.000000  -0.000000  -0.000012  -0.000000
    13  H   -0.000007  -0.000004  -0.000005  -0.000001   0.000058  -0.000022
    14  H    0.000004  -0.000001   0.000001   0.000000  -0.000011   0.000003
    15  H    0.000217  -0.000013   0.000275   0.000006  -0.000554  -0.000008
    16  H   -0.000008   0.000000  -0.000017  -0.000000  -0.000050   0.000000
    17  H   -0.000068   0.000020   0.000069  -0.000005   0.006170  -0.000006
    18  H    0.000004  -0.000001  -0.000021   0.000001  -0.000360   0.000017
    19  H   -0.001712  -0.000064   0.000075  -0.000041   0.000994  -0.000096
    20  H   -0.001113   0.000139  -0.001435   0.000053  -0.030535  -0.001463
    21  Si   0.020305   0.002786   0.012657   0.002336  -0.000198   0.001128
    22  O   -0.035293  -0.000316  -0.028585  -0.000239  -0.062796   0.000661
    23  O    0.000922   0.000513  -0.013328   0.000316   0.023984  -0.000219
    24  O    0.003998  -0.000005   0.014758   0.000131   0.252816   0.002115
    25  O   -0.007523  -0.000625  -0.001437   0.000367  -0.014864   0.001123
    26  Ca  -0.009580  -0.014268  -0.020988  -0.014913  -0.009230  -0.014478
    27  O    0.001879  -0.001547   0.270783   0.307067   0.004487   0.000098
    28  O    0.286095   0.321550  -0.000984  -0.000898  -0.001394  -0.000355
    29  O   -0.011111   0.003256   0.003269  -0.000133   0.016323   0.220082
    30  O    0.002490  -0.000288  -0.018410   0.002396  -0.018046  -0.002229
    31  H    0.441188  -0.014421  -0.012650   0.003067   0.007755   0.000495
    32  H   -0.014421   0.397935   0.003825   0.000024  -0.000053   0.000203
    33  H   -0.012650   0.003825   0.466384  -0.010173  -0.004014  -0.000404
    34  H    0.003067   0.000024  -0.010173   0.405243  -0.000130   0.000080
    35  H    0.007755  -0.000053  -0.004014  -0.000130   0.456697   0.004865
    36  H    0.000495   0.000203  -0.000404   0.000080   0.004865   0.463192
    37  H   -0.001327   0.000319   0.003015   0.001455   0.008058   0.001252
    38  H   -0.000480   0.000059   0.004355  -0.002401   0.004207   0.000091
    39  H    0.000808   0.000062   0.001841  -0.000040  -0.001134   0.000051
              37         38         39
     1  Si  -0.001627  -0.001558   0.022384
     2  O    0.000085   0.000007   0.004716
     3  O   -0.000411  -0.000025  -0.008479
     4  O    0.000748   0.000020   0.020782
     5  O   -0.000001   0.000003   0.002592
     6  Ca   0.000402   0.000035   0.002860
     7  O   -0.000004   0.000000  -0.000045
     8  O    0.000001  -0.000000  -0.000479
     9  O    0.000015   0.000001  -0.001536
    10  O   -0.000148   0.000003  -0.004017
    11  H   -0.000044  -0.000003  -0.000135
    12  H    0.000001  -0.000000   0.000247
    13  H   -0.000141  -0.000009  -0.000054
    14  H   -0.000004   0.000001  -0.000044
    15  H   -0.001004  -0.000010  -0.032574
    16  H    0.000026  -0.000004  -0.001658
    17  H    0.000368   0.000093   0.002632
    18  H   -0.000081  -0.000021  -0.000111
    19  H   -0.000172   0.000013  -0.000288
    20  H    0.004840  -0.000902   0.005392
    21  Si   0.023755   0.010854  -0.048703
    22  O   -0.027278  -0.007258   0.001043
    23  O   -0.001968  -0.001671   0.279319
    24  O   -0.036476  -0.011847   0.012657
    25  O    0.001614   0.000582  -0.014234
    26  Ca  -0.005194  -0.012613  -0.001003
    27  O   -0.003337  -0.001985  -0.000531
    28  O    0.000361   0.000331   0.000225
    29  O   -0.002228  -0.001828  -0.000080
    30  O    0.254899   0.306931  -0.000070
    31  H   -0.001327  -0.000480   0.000808
    32  H    0.000319   0.000059   0.000062
    33  H    0.003015   0.004355   0.001841
    34  H    0.001455  -0.002401  -0.000040
    35  H    0.008058   0.004207  -0.001134
    36  H    0.001252   0.000091   0.000051
    37  H    0.441434   0.007481   0.002087
    38  H    0.007481   0.401376   0.000226
    39  H    0.002087   0.000226   0.417931
 Mulliken charges:
               1
     1  Si   1.004703
     2  O   -0.947784
     3  O   -0.833259
     4  O   -0.837707
     5  O   -0.613539
     6  Ca   1.426160
     7  O   -0.559570
     8  O   -0.585214
     9  O   -1.086313
    10  O   -0.620957
    11  H    0.328414
    12  H    0.283538
    13  H    0.295642
    14  H    0.281455
    15  H    0.426578
    16  H    0.299787
    17  H    0.320750
    18  H    0.315106
    19  H    0.294372
    20  H    0.428405
    21  Si   1.196909
    22  O   -0.984817
    23  O   -0.666819
    24  O   -0.849999
    25  O   -0.946556
    26  Ca   1.499148
    27  O   -0.588263
    28  O   -0.560848
    29  O   -1.060748
    30  O   -0.558993
    31  H    0.317269
    32  H    0.302210
    33  H    0.340240
    34  H    0.305896
    35  H    0.339084
    36  H    0.323193
    37  H    0.329227
    38  H    0.305944
    39  H    0.337357
 Sum of Mulliken charges =  -1.00000
 Mulliken charges with hydrogens summed into heavy atoms:
               1
     1  Si   1.004703
     2  O   -0.947784
     3  O   -0.404855
     4  O   -0.411129
     5  O   -0.319168
     6  Ca   1.426160
     7  O    0.017526
     8  O    0.026737
     9  O   -0.786526
    10  O    0.014900
    21  Si   1.196909
    22  O   -0.984817
    23  O   -0.329462
    24  O   -0.510915
    25  O   -0.946556
    26  Ca   1.499148
    27  O    0.057873
    28  O    0.058630
    29  O   -0.737555
    30  O    0.076179
 Electronic spatial extent (au):  <R**2>=          14563.0768
 Charge=             -1.0000 electrons
 Dipole moment (field-independent basis, Debye):
    X=              5.8694    Y=              0.6794    Z=             -8.3598  Tot=             10.2371
 Quadrupole moment (field-independent basis, Debye-Ang):
   XX=            -84.1212   YY=           -145.0613   ZZ=           -160.3402
   XY=            -23.8562   XZ=            -11.7365   YZ=            -17.2052
 Traceless Quadrupole moment (field-independent basis, Debye-Ang):
   XX=             45.7197   YY=            -15.2204   ZZ=            -30.4993
   XY=            -23.8562   XZ=            -11.7365   YZ=            -17.2052
 Octapole moment (field-independent basis, Debye-Ang**2):
  XXX=             -3.7304  YYY=           -489.8506  ZZZ=            249.3929  XYY=           -199.9974
  XXY=             -9.7616  XXZ=           -157.0804  XZZ=           -262.9520  YZZ=           -155.1823
  YYZ=             12.6436  XYZ=             49.3454
 Hexadecapole moment (field-independent basis, Debye-Ang**3):
 XXXX=          -7705.3414 YYYY=          -2589.8991 ZZZZ=          -1774.4778 XXXY=            178.7493
 XXXZ=           -913.0981 YYYX=            -71.6136 YYYZ=             36.6012 ZZZX=            588.6057
 ZZZY=            276.3281 XXYY=          -1791.6968 XXZZ=          -2461.7263 YYZZ=           -653.0841
 XXYZ=            -15.8313 YYXZ=            255.2834 ZZXY=           -173.3184
 N-N= 2.926122684694D+03 E-N=-1.335647036777D+04  KE= 3.143340420291D+03
 D1PCM: C-PCM CHGder 1st derivatives, ID1Alg=3 FixD1E=F DoIter=F DoCFld=F I1PDM=0.
 Calling FoFJK, ICntrl=      2127 FMM=F ISym2X=0 I1Cent= 0 IOpClX= 0 NMat=1 NMatS=1 NMatT=0.
 -------------------------------------------------------------------
 Center     Atomic                   Forces (Hartrees/Bohr)
 Number     Number              X              Y              Z
 -------------------------------------------------------------------
      1       14           0.001030499   -0.001155359    0.000272731
      2        8           0.000532359   -0.000162396   -0.000276218
      3        8          -0.003452940    0.000136755    0.000256783
      4        8           0.000015909    0.000156933    0.000008183
      5        8          -0.001436553    0.000817489   -0.000631377
      6       20          -0.000373118    0.000157285    0.000149418
      7        8           0.000087712    0.000062190   -0.000008174
      8        8          -0.000018920    0.001325571    0.001927227
      9        8           0.000069306    0.000374378    0.000051741
     10        8           0.000234894   -0.000123086    0.000064924
     11        1           0.000042602   -0.000044763    0.000046654
     12        1          -0.000243548   -0.001280330   -0.001914991
     13        1          -0.000080322   -0.000097948   -0.000034668
     14        1           0.000002571   -0.000054331   -0.000027627
     15        1           0.000003734    0.000184321    0.000142423
     16        1          -0.000071426   -0.000395270   -0.000067008
     17        1          -0.000034882   -0.000057259   -0.000112582
     18        1           0.000010628    0.000003373   -0.000015571
     19        1           0.000926428   -0.000171941    0.000177564
     20        1           0.002526134    0.000087653   -0.000265140
     21       14          -0.001656845   -0.001401758    0.001344255
     22        8          -0.001213510    0.000104103   -0.000871458
     23        8          -0.000174302   -0.000341138   -0.000090641
     24        8           0.000520507   -0.001529258   -0.000036960
     25        8           0.002580610    0.001569171   -0.000735185
     26       20           0.001116734    0.000686648    0.000681767
     27        8           0.000282827    0.000064811    0.000058213
     28        8           0.000220620    0.000351317    0.000008726
     29        8          -0.009477789   -0.046555730   -0.048712019
     30        8           0.002339839    0.000256195   -0.000052466
     31        1           0.000028860    0.000416925    0.000144427
     32        1          -0.000168920   -0.000911855   -0.000141384
     33        1          -0.000158791   -0.000110425    0.000026664
     34        1           0.000082423    0.000127254    0.000007215
     35        1          -0.000208566    0.001521568    0.000147238
     36        1           0.008260491    0.046079841    0.048382924
     37        1          -0.002382509   -0.000531093   -0.000027752
     38        1           0.000276975    0.000277022    0.000092289
     39        1          -0.000039718    0.000163140    0.000029854
 -------------------------------------------------------------------
 Cartesian Forces:  Max     0.048712019 RMS     0.008885974

 GradGradGradGradGradGradGradGradGradGradGradGradGradGradGradGradGradGrad
 Berny optimization.
 FormGI is forming the generalized inverse of G from B-inverse, IUseBI=4.
 Internal  Forces:  Max     0.067315093 RMS     0.004677900
 Search for a local minimum.
 Step number   1 out of a maximum of  234
 All quantities printed in internal units (Hartrees-Bohrs-Radians)
 Mixed Optimization -- RFO/linear search
 Second derivative matrix not updated -- first step.
 ITU=  0
     Eigenvalues ---    0.00230   0.00230   0.00230   0.00230   0.00230
     Eigenvalues ---    0.00699   0.00735   0.00747   0.00760   0.01507
     Eigenvalues ---    0.02006   0.02097   0.02269   0.02343   0.02641
     Eigenvalues ---    0.02753   0.02790   0.02802   0.02817   0.02971
[...]
 801,0.00003185,-0.00015794,-0.00006859,-0.00013735,-0.00021776,0.00005
 816,0.00012029,-0.00017918,0.00020289,-0.00003502,-0.00036133,0.000378
 68,-0.00024381,0.00026510,-0.00004479,-0.00019971,-0.00000617,0.000001
 93,-0.00000596,0.00020652,0.00013027,0.00017681,0.00001890,0.00002391,
 0.00002285,0.00025846,-0.00026984,0.00005750,-0.00000677,0.00001436,0.
 00000004,0.00053546,-0.00057741,0.00044608,-0.00001026,-0.00001072,0.0
 0001168,0.00016281,0.00041835,-0.00028453,0.00367645,0.00183029,0.0005
 4763,-0.00208104,0.00261162,-0.02317335,0.00501452,-0.00299201,0.00529
 969,-0.00051564,0.00457431,0.00512132,0.12031487,-0.22673748,-0.083384
 80,-0.00383601,-0.00320141,0.00537742,0.00208998,0.00504823,0.00394969
 ,0.00073657,0.00005125,-0.00003854,0.00035103,-0.00056082,-0.00063862,
 -0.02208754,0.00686727,0.00324836,0.00455055,0.00216777,-0.00020633,-0
 .00062763,0.00121422,0.00013514,0.00005549,-0.00013218,0.00008493,-0.0
 0109470,-0.00052690,-0.00026136,0.00004488,-0.00002592,-0.00011569,-0.
 09636785,0.22059874,0.00230364,-0.00009944,-0.00073355,-0.00058631,0.0
 0003077,0.00014714,-0.00173711,-0.00029936,0.00001183,-0.00053702,0.00
 054803,0.00025153,-0.00047780,-0.00047561,0.00033587,0.00012606,-0.000
 09547,0.00001819,-0.00008541,-0.00003637,-0.00007790,-0.00012683,0.000
 03319,0.00007236,-0.00010069,0.00011360,-0.00000849,-0.00021857,0.0002
 3417,-0.00014984,0.00015486,-0.00001958,-0.00011697,-0.00000359,0.0000
 0135,-0.00000363,0.00011100,0.00006584,0.00009909,0.00001181,0.0000126
 9,0.00001714,0.00015551,-0.00011268,0.00002705,-0.00000265,0.00000818,
 -0.00000368,0.00034293,-0.00035530,0.00026957,-0.00000868,-0.00000694,
 0.00000831,0.00005742,0.00020759,-0.00013026,0.00229585,0.00079663,0.0
 0059095,0.01105717,-0.01796401,-0.02601987,0.00367718,0.00052742,0.006
 25923,0.00003749,0.00039331,-0.00010490,0.04392074,-0.07551825,-0.0697
 6381,-0.00315270,0.00022815,0.00214189,-0.00313002,0.00226821,0.002250
 73,0.00111215,0.00028975,0.00002738,0.00049444,-0.00079644,-0.00013823
 ,-0.01378719,0.00761325,-0.01077429,0.00200875,0.00043018,-0.00079916,
 -0.00060486,0.00128811,-0.00025541,0.00004637,-0.00002663,0.00005222,-
 0.00143716,-0.00067851,-0.00028541,0.00005578,-0.00003397,-0.00003641,
 -0.04179766,0.08390167,0.09619282,0.00017575,0.00000099,-0.00006037,-0
 .00004606,-0.00000057,0.00001256,-0.00014353,-0.00005096,0.00000304,-0
 .00005202,0.00002806,0.00002232,-0.00004325,-0.00003834,0.00002440,0.0
 0000860,-0.00000588,0.00000348,-0.00000617,-0.00000449,-0.00000777,-0.
 00000871,0.00000141,0.00000483,-0.00000799,0.00000873,-0.00000246,-0.0
 0001558,0.00001644,-0.00001274,0.00001186,-0.00000072,-0.00000820,-0.0
 0000089,0.00000034,-0.00000026,0.00000969,0.00000705,0.00000955,0.0000
 0020,0.00000167,0.00000110,0.00001172,-0.00001465,0.00000216,-0.000000
 48,0.00000065,0.,0.00002593,-0.00002564,0.00002464,-0.00000123,-0.0000
 0038,0.00000076,0.00000923,0.00002028,-0.00001526,0.00017945,0.0001036
 7,0.00003018,0.00004656,-0.00013937,-0.00148652,0.00059711,0.00015551,
 0.00054809,-0.00001532,0.00017665,0.00028077,-0.00425749,0.00452678,0.
 00128240,-0.00019118,-0.00010971,0.00023771,-0.00364026,-0.00218688,-0
 .00301304,0.00000167,-0.00023879,-0.00025361,0.00007604,0.00010299,-0.
 00010517,-0.01901863,-0.06251241,-0.06396157,0.00011481,-0.00028133,-0
 .00002451,-0.00010698,0.00008154,0.00002520,0.00001475,-0.00001943,-0.
 00002663,-0.00018319,-0.00001692,0.00007135,0.00004175,-0.00000842,-0.
 00004836,0.00552915,-0.00187303,0.00216371,0.02116182,-0.00017435,-0.0
 0000136,0.00006997,0.00005135,-0.00000226,-0.00001244,0.00015229,0.000
 03267,-0.00000517,0.00005214,-0.00003193,-0.00002028,0.00004175,0.0000
 3633,-0.00002576,-0.00001057,0.00000928,-0.00000288,0.00000818,0.00000
 282,0.00000722,0.00001129,-0.00000344,-0.00000624,0.00000880,-0.000010
 48,0.00000251,0.00001788,-0.00002106,0.00001449,-0.00001329,0.00000195
 ,0.00000957,0.00000049,-0.00000007,0.00000027,-0.00001099,-0.00000633,
 -0.00000839,-0.00000104,-0.00000063,-0.00000171,-0.00001268,0.00001381
 ,-0.00000428,0.00000045,-0.00000086,-0.00000010,-0.00002701,0.00003213
 ,-0.00002357,0.00000115,-0.00000020,-0.00000113,-0.00000461,-0.0000184
 8,0.00000907,-0.00018621,-0.00008586,-0.00003865,-0.00001666,-0.000077
 71,0.00133855,-0.00012624,0.00037260,-0.00012425,0.00001677,-0.0001637
 6,-0.00022738,0.00278767,-0.00142200,-0.00102520,0.00016444,0.00012777
 ,-0.00023230,0.00226519,-0.00021322,0.00134608,-0.00004268,-0.00000239
 ,0.00001006,0.00006106,0.00000815,0.00014652,-0.06325328,-0.28328693,-
 0.27718281,-0.00037169,-0.00066119,-0.00018031,0.00004933,-0.00006269,
 -0.00009313,-0.00000909,0.00003714,-0.00003966,0.00004034,0.00002496,0
 .00002941,0.00000147,0.00000257,0.00001312,-0.00390935,-0.00080075,-0.
 00142919,0.06251160,0.28562672,-0.00012052,0.00000620,0.00000658,0.000
 02100,0.00000120,-0.00000481,0.00003277,0.00000241,0.00001673,0.000039
 66,-0.00001713,-0.00000940,0.00002831,0.00002934,-0.00001733,-0.000004
 53,0.00000245,-0.00000029,0.00000284,0.00000189,0.00000307,0.00000400,
 -0.00000021,-0.00000265,0.00000526,-0.00000528,0.00000113,0.00000679,-
 0.00000548,0.00000379,-0.00000554,0.00000033,0.00000476,0.00000026,-0.
 00000017,0.00000022,-0.00000341,-0.00000342,-0.00000471,-0.00000037,-0
 .00000042,-0.00000016,-0.00000757,0.00000761,-0.00000252,0.00000040,-0
 .00000028,0.00000018,-0.00000931,0.00000632,-0.00000910,-0.00000048,0.
 00000041,0.00000020,-0.00000513,-0.00001489,0.00001010,-0.00003535,-0.
 00000823,-0.00000858,-0.00092147,0.00049449,0.00025486,0.00017966,-0.0
 0066574,-0.00096659,0.00014032,-0.00012192,-0.00001527,-0.00049276,0.0
 0044620,0.00095272,0.00024246,0.00001671,-0.00002598,0.00091347,-0.000
 58181,-0.00072577,-0.00015750,-0.00009491,-0.00007496,-0.00009578,0.00
 022040,-0.00013624,-0.06477422,-0.27722870,-0.27186021,0.00010078,0.00
 032032,0.00024293,0.00004212,-0.00021136,0.00023282,-0.00000077,-0.000
 03102,0.00001993,0.00019799,0.00009767,0.00006437,0.,0.00000892,-0.000
 01181,0.00031886,-0.00045094,-0.00156512,0.06419867,0.27770988,0.27370
 976,-0.00243162,0.00008983,0.00088240,0.00067839,-0.00002997,-0.000201
 18,0.00193257,0.00014214,-0.00017767,0.00070158,-0.00043734,-0.0002551
 7,0.00058002,0.00054350,-0.00036925,-0.00015132,0.00012128,-0.00001874
 ,0.00010869,0.00004405,0.00009225,0.00015543,-0.00004221,-0.00008620,0
 .00011544,-0.00013737,0.00001695,0.00024921,-0.00027208,0.00017005,-0.
 00018738,0.00003061,0.00014096,0.00000356,-0.00000087,0.00000418,-0.00
 014055,-0.00008674,-0.00011730,-0.00001494,-0.00001518,-0.00001715,-0.
 00017043,0.00017023,-0.00003627,0.00000580,-0.00001011,0.00000181,-0.0
 0036935,0.00041347,-0.00031096,0.00000920,0.00000918,-0.00000792,-0.00
 009354,-0.00027842,0.00018050,-0.00278457,-0.00059725,-0.00029917,0.00
 078451,-0.00047318,0.01868028,-0.00425594,0.00029812,-0.00179181,0.000
 89836,-0.00174518,-0.00243742,0.00822020,0.01219376,-0.01103379,0.0026
 5938,0.00121299,-0.00391163,-0.00158898,0.00654052,-0.00308223,-0.0000
 6875,-0.00019002,0.00087286,-0.00026338,0.00010855,0.00017372,-0.00357
 095,0.00099205,0.00035970,-0.43955014,-0.05689775,0.00003191,0.0002439
 5,-0.00044851,0.00003157,-0.00002911,0.00001408,0.00003756,0.00069932,
 0.00034600,-0.00045103,-0.00021868,-0.00008266,-0.00032539,0.00308462,
 -0.00828789,-0.00239410,-0.00041020,-0.00005417,0.00018444,0.43993038,
 -0.00157713,0.00011255,0.00058731,0.00043295,-0.00003317,-0.00013707,0
 .00130571,0.00015811,-0.00007928,0.00037956,-0.00031587,-0.00015047,0.
 00037060,0.00033833,-0.00024340,-0.00008799,0.00008052,-0.00001227,0.0
 0006875,0.00002550,0.00005621,0.00009531,-0.00002857,-0.00005277,0.000
 06681,-0.00008774,0.00001423,0.00015507,-0.00017734,0.00011058,-0.0001
 1529,0.00002133,0.00009033,0.00000312,-0.00000020,0.00000208,-0.000091
 16,-0.00005592,-0.00007050,-0.00000949,-0.00000799,-0.00001176,-0.0001
 0125,0.00010182,-0.00002096,0.00000395,-0.00000579,-0.00000232,-0.0002
 3186,0.00026685,-0.00020492,0.00001042,0.00000435,-0.00000487,-0.00005
 768,-0.00017645,0.00010946,-0.00178417,-0.00049394,-0.00022566,-0.0023
 2995,0.00128893,0.01050263,-0.00117661,0.00076413,-0.00337308,0.000519
 46,-0.00137968,-0.00110863,0.01061566,-0.00016929,-0.00625453,0.001881
 37,0.00073473,-0.00225473,0.00633796,-0.00165824,0.00192682,-0.0005141
 8,-0.00029707,0.00015471,-0.00029715,0.00051444,-0.00009549,-0.0009667
 6,0.00292032,0.00099800,-0.01057674,-0.05231068,-0.01362543,0.00029610
 ,-0.00072574,0.00022608,-0.00003666,-0.00000727,0.00000718,0.00075053,
 0.00037983,0.00015884,-0.00005066,-0.00001714,-0.00008449,-0.00476810,
 -0.00859622,-0.00064913,-0.00016238,0.00061596,-0.00004085,0.04361987,
 0.06419293,0.00083600,0.00006535,-0.00032185,-0.00028212,-0.00000300,0
 .00006260,-0.00077416,-0.00006011,0.00005306,-0.00042330,0.00008990,0.
 00012957,-0.00019133,-0.00019323,0.00014933,0.00006193,-0.00004808,0.0
 0001431,-0.00004477,-0.00001806,-0.00004140,-0.00006249,0.00001721,0.0
 0003331,-0.00005599,0.00006193,-0.00001253,-0.00009159,0.00010405,-0.0
 0007415,0.00007514,-0.00001462,-0.00005506,-0.00000094,0.00000018,-0.0
 0000162,0.00005616,0.00003526,0.00005266,0.00000517,0.00000599,0.00000
 675,0.00007558,-0.00009869,0.00001431,-0.00000231,0.00000487,-0.000000
 97,0.00013645,-0.00015582,0.00013485,-0.00000450,-0.00000276,0.0000039
 4,0.00002713,0.00008522,-0.00005853,0.00103731,0.00023142,0.00000594,0
 .00727442,0.00350072,-0.00715323,-0.00004584,-0.00234163,0.00349121,-0
 .00149553,0.00088118,0.00110785,-0.00504546,-0.00426043,-0.00620098,-0
 .00116605,-0.00055976,0.00049871,-0.00371076,0.00347825,-0.00013253,0.
 00069025,0.00032517,-0.00000561,0.00042079,-0.00066804,0.00006207,0.00
 062848,-0.00038004,-0.00109617,0.01909092,-0.01285851,-0.01706010,-0.0
 0047824,0.00090491,-0.00013793,0.00003451,0.00000976,0.00001535,-0.000
 84503,-0.00043440,-0.00046452,0.00003126,-0.00003580,0.00010377,-0.001
 05571,0.00120671,0.00264058,0.00008270,-0.00010518,-0.00010442,0.00354
 853,0.01385370,0.02524114,0.00003853,-0.00001063,-0.00004830,-0.000008
 78,0.00000520,0.00001213,-0.00007026,-0.00000860,0.00002107,0.00002792
 ,0.00002432,0.00000539,-0.00000765,-0.00000335,0.00000381,-0.00000048,
 -0.00000341,0.00000019,-0.00000110,0.00000047,-0.00000061,-0.00000222,
 0.00000125,0.00000027,0.00000399,0.00000028,-0.00000015,-0.00000533,0.
 00000683,-0.00000373,0.00000245,-0.00000140,-0.00000167,-0.00000010,-0
 .00000036,0.00000012,0.00000256,0.00000064,0.00000118,0.00000092,-0.00
 000062,0.00000061,-0.00000128,0.00000286,-0.00000337,-0.00000016,0.000
 00014,0.00000050,0.00001073,-0.00000983,0.00000882,-0.00000200,0.00000
 020,-0.00000021,0.00000143,0.00000325,-0.00000250,0.00010902,0.0000120
 9,0.00002862,-0.00071175,-0.00048104,-0.00041859,0.00019265,0.00017590
 ,-0.00021915,0.00021231,0.00002635,-0.00004235,-0.00201551,-0.00032059
 ,0.00130476,-0.00001105,0.00000016,0.00017741,0.00038225,-0.00024012,0
 .00142586,-0.00009762,-0.00030369,0.00031168,0.00000114,0.00013904,-0.
 00010264,0.00039158,0.00039584,0.00007733,-0.05943995,-0.05177669,-0.0
 2395025,0.00001423,-0.00005418,0.00002809,0.00000269,-0.00001466,-0.00
 001794,0.00026177,0.00014161,-0.00002358,-0.00017039,0.00006094,-0.000
 54383,0.00009109,0.00057106,0.00001924,0.00008366,0.00002575,0.0000078
 0,-0.00413463,-0.04170742,-0.01887407,0.06491027,-0.00022246,-0.000000
 73,0.00002396,0.00005025,0.00000109,-0.00000556,0.00012134,0.00000336,
 0.00002198,0.00008659,-0.00002722,-0.00002098,0.00005202,0.00004758,-0
 .00003125,-0.00001161,0.00000980,-0.00000295,0.00000854,0.00000293,0.0
 0000760,0.00001100,-0.00000342,-0.00000586,0.00001176,-0.00001405,0.00
 000267,0.00001593,-0.00001818,0.00001061,-0.00001343,0.00000284,0.0000
 1021,0.00000008,0.00000014,0.00000026,-0.00001043,-0.00000657,-0.00000
 985,-0.00000091,-0.00000073,-0.00000113,-0.00001669,0.00001949,-0.0000
 0296,0.00000082,-0.00000079,-0.00000029,-0.00002367,0.00002675,-0.0000
 1855,0.00000045,0.00000119,-0.00000045,-0.00000892,-0.00002361,0.00001
 446,-0.00013543,-0.00002918,-0.00001380,-0.00132274,-0.00026086,0.0007
 4796,0.00058294,0.00080025,-0.00076369,0.00032551,-0.00019828,-0.00019
 835,0.00098740,0.00105542,-0.00010651,0.00038371,0.00009336,-0.0001351
 2,-0.00005031,-0.00344525,-0.00092444,-0.00047200,0.00028299,-0.001190
 62,-0.00011488,0.00020435,-0.00000851,-0.00016458,-0.00006999,0.000041
 08,-0.09686585,-0.44626992,-0.18668984,0.00012403,-0.00028271,0.000061
 30,-0.00000857,-0.00000294,-0.00000219,-0.00013051,-0.00012770,0.00066
 451,0.00026092,0.00019191,0.00057291,0.00022776,-0.00042092,-0.0001691
 8,-0.00005057,-0.00008056,0.00012302,0.00312423,-0.00595657,-0.0026259
 9,0.09334634,0.45449786,0.00004342,-0.00000362,0.00003614,-0.00000610,
 -0.00000175,-0.00000999,0.00002708,0.00001216,-0.00003294,-0.00003262,
 -0.00000371,-0.00000103,-0.00001369,-0.00001097,0.00000421,0.00000186,
 -0.00000040,0.00000332,-0.00000116,-0.00000050,-0.00000248,-0.00000078
 ,0.00000042,0.00000043,-0.00000485,0.00000367,-0.00000224,0.00000036,-
 0.00000039,-0.00000113,0.00000114,-0.00000031,-0.00000060,0.00000003,0
 .00000012,0.00000009,0.00000063,0.00000088,0.00000218,-0.00000031,0.00
 000030,0.,0.00000557,-0.00000673,0.00000216,-0.00000017,0.00000002,0.0
 0000057,0.00000040,-0.00000059,-0.00000062,-0.00000030,-0.00000071,0.0
 0000029,0.00000032,0.00000598,0.00000013,-0.00005411,-0.00001061,-0.00
 000465,0.00051455,0.00015579,0.00031052,-0.00047270,-0.00054910,-0.000
 04609,-0.00014857,0.00002900,0.00000518,0.00097413,0.00020882,-0.00021
 662,-0.00012664,-0.00002521,-0.00004660,0.00016930,0.00237018,0.000583
 88,0.00035841,-0.00061882,0.00125699,0.00008301,-0.00006701,-0.0000638
 4,-0.00003246,-0.00003350,0.00025431,-0.04366340,-0.19242155,-0.084984
 45,-0.00007478,0.00014506,-0.00000149,0.00000413,-0.00000422,-0.000000
 17,0.00044409,0.00032631,-0.00066193,-0.00061712,0.00014269,-0.0015276
 1,-0.00019384,-0.00016841,-0.00011682,0.00001577,0.00006661,0.00001166
 ,0.00191753,-0.00016367,-0.00095895,0.04083212,0.19062739,0.08620989,0
 .00267207,-0.01751970,-0.00686669,0.00493036,0.00341206,0.00270413,-0.
 00096755,0.00141697,0.00172670,0.00691490,0.01182351,0.00081333,-0.000
 90219,0.00211443,0.00007520,-0.00121940,0.00054924,-0.00078109,0.00089
 580,0.00031686,0.00103149,0.00079756,-0.00017208,-0.00047915,0.0024514
 3,-0.00222095,0.00066460,0.00007078,-0.00021672,0.00036274,-0.00107487
 ,0.00014327,0.00083399,0.00000376,-0.00001568,0.00004939,-0.00098440,-
 0.00064001,-0.00131887,0.00003123,-0.00002712,-0.00001372,-0.00417301,
 0.00590973,-0.00045515,0.00015230,-0.00013578,0.00004560,-0.00010667,0
 .00018951,-0.00043876,0.00000644,0.00003104,-0.00001434,0.00024685,0.0
 0022244,-0.00018906,0.00077977,0.00010864,0.00005746,-0.00584426,0.022
 08143,0.00672922,0.00317226,-0.00367921,0.00051023,-0.40396332,0.02498
 132,0.11222265,0.00060644,-0.00404687,-0.00409955,-0.00767043,-0.00391
 785,0.00051104,-0.00068167,0.00032790,0.00034156,0.00050571,0.00016715
 ,0.00008405,0.00037362,-0.00061361,0.00005915,0.00051051,-0.00066193,-
 0.00031402,0.00046589,0.00020795,-0.00027299,-0.00033924,0.00081067,-0
 .00020300,0.00003498,-0.00000321,0.00000242,-0.00069238,-0.00028274,-0
 .00025495,-0.00000295,-0.00001797,-0.00001364,-0.00087389,0.00093365,0
 .00003626,0.00004941,-0.00004546,-0.00003316,-0.00062616,-0.00027057,0
 .00053745,-0.00006092,-0.00009807,0.00004976,0.40451125,-0.00659527,-0
 .00657370,-0.00188728,0.00164935,0.00090296,0.00057856,0.00058931,0.00
 046855,0.00156440,0.00602764,-0.00786218,-0.00049830,0.00079996,0.0011
 3928,-0.00054359,-0.00048515,0.00020547,-0.00026636,0.00029792,0.00010
 931,0.00031480,0.00031536,-0.00006240,-0.00018360,0.00093755,-0.001072
 78,0.00029101,0.00019023,-0.00025655,0.00021653,-0.00040368,0.00005429
 ,0.00031317,0.00000065,-0.00000514,0.00001872,-0.00034382,-0.00021695,
 -0.00040623,-0.00000261,-0.00001607,-0.00001595,0.00062862,0.00410154,
 -0.00078761,0.00009936,-0.00009347,0.00003724,-0.00028726,0.00033159,-
 0.00031814,0.00001046,0.00001339,-0.00000748,-0.00013411,-0.00038858,0
 .00029500,0.00015523,-0.00013134,-0.00053242,0.02918831,-0.01039001,-0
 .01051734,0.00139393,-0.00393788,0.00030105,0.00888599,-0.03167252,-0.
 00663956,-0.00089274,-0.00102533,-0.00040870,-0.00042438,0.00490664,0.
 00084184,-0.00020115,0.00002322,0.00025473,0.00014280,0.00004679,-0.00
 000123,0.00026804,-0.00046224,0.00004869,-0.00005363,0.00001887,-0.000
 03498,-0.00009153,0.00000917,0.00000478,-0.00018212,0.00054472,-0.0001
 9791,0.00003821,-0.00001550,0.00000280,-0.00025645,-0.00011046,-0.0000
 4135,0.00000142,-0.00000442,0.00000029,-0.00016918,-0.00020748,-0.0002
 2602,-0.00000349,0.00000932,-0.00001303,0.00007242,-0.00001975,0.00000
 237,-0.00000393,-0.00000110,-0.00000359,-0.04116223,0.05164075,-0.0026
 0855,0.00162524,0.00176710,-0.00103214,-0.00092109,-0.00057763,0.00050
 533,0.00013042,-0.00008776,-0.00091362,-0.00129045,-0.00658117,0.00033
 347,-0.00013374,-0.00011196,0.00020718,-0.00010496,0.00015232,-0.00016
 289,-0.00004956,-0.00021053,-0.00013444,0.00003625,0.00007555,-0.00040
 384,0.00042157,-0.00011625,0.00007482,-0.00001759,-0.00001360,0.000181
 55,-0.00002658,-0.00013432,-0.00000036,-0.00000103,-0.00000349,0.00017
 589,0.00010433,0.00028320,-0.00001217,-0.00000163,-0.00000125,-0.00011
 648,-0.00176811,-0.00026147,-0.00002751,0.00003460,-0.00000985,-0.0000
 9991,0.00005897,-0.00001473,0.00000446,-0.00000412,-0.00000407,-0.0000
 8305,-0.00012814,0.00010711,-0.00010177,-0.00025034,-0.00026648,0.0088
 0936,-0.00861085,-0.00115597,-0.00205926,0.00291523,0.00056815,0.11059
 296,-0.01113726,-0.04505235,-0.00054440,-0.00081444,-0.00037366,0.0012
 6886,0.00184012,-0.00170279,0.00024020,-0.00006223,-0.00022484,-0.0002
 2110,-0.00008745,-0.00002815,-0.00022693,0.00037300,-0.00005164,-0.000
 03038,0.00014944,0.00013895,-0.00007502,-0.00007175,0.00003760,0.00016
 836,-0.00042974,0.00017258,-0.00002404,0.00000538,-0.00000514,0.000389
 87,0.00012332,0.00011288,-0.00000484,0.00001031,0.00000155,-0.00033353
 ,-0.00044476,-0.00033012,-0.00001892,0.00001669,0.00001012,-0.00000281
 ,0.00006813,0.00005923,-0.00001405,-0.00000183,-0.00000169,-0.11370028
 ,0.01844469,0.05383458\\0.00000186,0.00000519,0.00000388,-0.00000040,0
 .00000725,0.00000735,-0.00000360,-0.00000148,0.00000439,0.00000403,0.0
 0000770,-0.00000096,-0.00000088,0.00000897,0.00001064,0.00000142,0.000
 00619,0.00000336,-0.00000436,0.00000425,0.00001282,0.00000282,0.000016
 49,0.00000938,0.00000757,0.00000922,-0.00000435,-0.00000241,-0.0000027
 5,0.00000084,0.00000298,0.00001345,0.00000876,0.00000590,0.00001883,0.
 00000709,-0.00000318,0.00000479,0.00001127,-0.00000609,-0.00000049,0.0
 0001206,0.00000533,0.00000832,-0.00000243,0.00000775,0.00000945,-0.000
 00742,-0.00000220,-0.00000271,0.00000255,-0.00000126,-0.00000510,-0.00
 000200,-0.00000024,0.00000858,0.00000926,-0.00000297,-0.00000409,0.000
 00258,0.00000199,-0.00000150,-0.00000310,0.00000028,-0.00000196,-0.000
 00414,0.00000455,0.00000058,-0.00000827,-0.00000209,-0.00000844,-0.000
 00334,-0.00000040,0.00000263,0.00000253,-0.00000265,-0.00000957,-0.000
 00550,0.00000285,-0.00000482,-0.00001102,-0.00000303,-0.00000328,0.000
 00218,-0.00000735,-0.00001344,0.00000066,-0.00000112,-0.00001420,-0.00
 001126,-0.00000070,-0.00000170,0.00000056,-0.00000431,-0.00000291,0.00
 000576,0.00000378,-0.00000270,-0.00000944,0.00000500,-0.00000527,-0.00
 001589,-0.00000465,-0.00000899,-0.00000099,-0.00000904,-0.00001543,0.0
 0000391,-0.00000114,-0.00001172,-0.00000937,0.00000110,-0.00001273,-0.
 00001527,0.00000486,0.00000340,-0.00000709\\\@


 THE WORLD OF CHEMICAL REACTIONS IS LIKE A STAGE,
 ON WHICH SCENE AFTER SCENE IS CEASELESSLY PLAYED.
 THE ACTORS ON IT ARE THE ELEMENTS.
   -- CLEMENS WINKLER   BER. 30,13(1897)
 (DISCOVERER OF GERMANIUM, FEB 6, 1886)
 Job cpu time:       0 days 16 hours 48 minutes 19.5 seconds.
 Elapsed time:       0 days  1 hours  3 minutes  8.8 seconds.
 File lengths (MBytes):  RWF=   1696 Int=      0 D2E=      0 Chk=     45 Scr=      1
 Normal termination of Gaussian 16 at Sun May  1 23:38:11 2022.
