 Entering Gaussian System, Link 0=g16
 Input=c2sdimerts1.gjf
 Output=c2sdimerts1.log
 Initial command:
 /cm/shared/apps/gaussian16/g16/l1.exe "/scratch4/kramesh1/nmitra1/Gaussian/C2S/4090329/Gau-26020.inp" -scrdir="/scratch4/kramesh1/nmitra1/Gaussian/C2S/4090329/"
 Entering Link 1 = /cm/shared/apps/gaussian16/g16/l1.exe PID=     26022.
  
 Copyright (c) 1988-2017, Gaussian, Inc.  All Rights Reserved.
  
 This is part of the Gaussian(R) 16 program.  It is based on
 the Gaussian(R) 09 system (copyright 2009, Gaussian, Inc.),
 the Gaussian(R) 03 system (copyright 2003, Gaussian, Inc.),
 the Gaussian(R) 98 system (copyright 1998, Gaussian, Inc.),
 the Gaussian(R) 94 system (copyright 1995, Gaussian, Inc.),
 the Gaussian 92(TM) system (copyright 1992, Gaussian, Inc.),
 the Gaussian 90(TM) system (copyright 1990, Gaussian, Inc.),
 the Gaussian 88(TM) system (copyright 1988, Gaussian, Inc.),
 the Gaussian 86(TM) system (copyright 1986, Carnegie Mellon
 University), and the Gaussian 82(TM) system (copyright 1983,
 Carnegie Mellon University). Gaussian is a federally registered
 trademark of Gaussian, Inc.
  
 This software contains proprietary and confidential information,
 including trade secrets, belonging to Gaussian, Inc.
  
 This software is provided under written license and may be
 used, copied, transmitted, or stored only in accord with that
 written license.
  
 The following legend is applicable only to US Government
 contracts under FAR:
  
                    RESTRICTED RIGHTS LEGEND
  
 Use, reproduction and disclosure by the US Government is
 subject to restrictions as set forth in subparagraphs (a)
 and (c) of the Commercial Computer Software - Restricted
 Rights clause in FAR 52.227-19.
  
 Gaussian, Inc.
 340 Quinnipiac St., Bldg. 40, Wallingford CT 06492
  
  
 ---------------------------------------------------------------
 Warning -- This program may not be used in any manner that
 competes with the business of Gaussian, Inc. or will provide
 assistance to any competitor of Gaussian, Inc.  The licensee
 of this program is prohibited from giving any competitor of
 Gaussian, Inc. access to this program.  By using this program,
 the user acknowledges that Gaussian, Inc. is engaged in the
 business of creating and licensing software in the field of
 computational chemistry and represents and warrants to the
 licensee that it is not a competitor of Gaussian, Inc. and that
 it will not use this program in any manner prohibited above.
 ---------------------------------------------------------------
  

 Cite this work as:
 Gaussian 16, Revision B.01,
 M. J. Frisch, G. W. Trucks, H. B. Schlegel, G. E. Scuseria, 
 M. A. Robb, J. R. Cheeseman, G. Scalmani, V. Barone, 
 G. A. Petersson, H. Nakatsuji, X. Li, M. Caricato, A. V. Marenich, 
 J. Bloino, B. G. Janesko, R. Gomperts, B. Mennucci, H. P. Hratchian, 
 J. V. Ortiz, A. F. Izmaylov, J. L. Sonnenberg, D. Williams-Young, 
 F. Ding, F. Lipparini, F. Egidi, J. Goings, B. Peng, A. Petrone, 
 T. Henderson, D. Ranasinghe, V. G. Zakrzewski, J. Gao, N. Rega, 
 G. Zheng, W. Liang, M. Hada, M. Ehara, K. Toyota, R. Fukuda, 
 J. Hasegawa, M. Ishida, T. Nakajima, Y. Honda, O. Kitao, H. Nakai, 
 T. Vreven, K. Throssell, J. A. Montgomery, Jr., J. E. Peralta, 
 F. Ogliaro, M. J. Bearpark, J. J. Heyd, E. N. Brothers, K. N. Kudin, 
 V. N. Staroverov, T. A. Keith, R. Kobayashi, J. Normand, 
 K. Raghavachari, A. P. Rendell, J. C. Burant, S. S. Iyengar, 
 J. Tomasi, M. Cossi, J. M. Millam, M. Klene, C. Adamo, R. Cammi, 
 J. W. Ochterski, R. L. Martin, K. Morokuma, O. Farkas, 
 J. B. Foresman, and D. J. Fox, Gaussian, Inc., Wallingford CT, 2016.
 
 ******************************************
 Gaussian 16:  ES64L-G16RevB.01 20-Dec-2017
                30-Apr-2022 
 ******************************************
 %nprocshared=16
 Will use up to   16 processors via shared memory.
 %mem=2000MW
 %chk=c2sdimerts1.chk
 ----------------------------------------------------------------------
 # opt=maxcycle=1600 freq wb97xd/6-311++g(d,p) scrf=(cpcm,solvent=water
 ) nosymm scf=maxcycle=800
 ----------------------------------------------------------------------
 1/6=1600,18=20,19=15,26=3,38=1/1,3;
 2/9=110,12=2,15=1,17=6,18=5,40=1/2;
 3/5=4,6=6,7=1111,11=2,25=1,30=1,70=2101,71=1,72=1,74=-58/1,2,3;
 4//1;
 5/5=2,7=800,38=5,53=1/2;
 6/7=2,8=2,9=2,10=2,28=1/1;
 7/30=1/1,2,3,16;
 1/6=1600,18=20,19=15,26=3/3(2);
 2/9=110,15=1/2;
 99//99;
 2/9=110,15=1/2;
 3/5=4,6=6,7=1111,11=2,25=1,30=1,70=2105,71=1,72=1,74=-58/1,2,3;
 4/5=5,16=3,69=1/1;
 5/5=2,7=800,38=5,53=1/2;
 7/30=1/1,2,3,16;
 1/6=1600,18=20,19=15,26=3/3(-5);
 2/9=110,15=1/2;
 6/7=2,8=2,9=2,10=2,19=2,28=1/1;
 99/9=1/99;
 -----------
 c2sdimerts1
 -----------
 Symbolic Z-matrix:
 Charge = -1 Multiplicity = 1
 Si                   -1.41802  -0.14032   0. 
 O                    -3.04292  -0.03332  -0.04067 
 O                    -1.11142  -0.43564  -1.64818 
 O                    -0.909     1.37235   0.51118 
 O                    -1.1266   -1.38903   1.07262 
 Ca                   -4.26321   1.72966  -0.95001 
 O                    -4.90549  -0.72198  -1.64175 
 O                    -4.92813   0.86635   1.39894 
 O                    -2.82745   3.11263   0.00847 
 O                    -2.85308   1.19558  -2.88358 
 H                    -4.10093   0.37831   1.13123 
 H                    -4.68746   1.43518   2.13208 
 H                    -4.0959   -0.76373  -1.0628 
 H                    -4.59991  -0.8924   -2.53502 
 H                    -1.61413   2.07135   0.37025 
 H                    -2.57532   4.03306  -0.03374 
 H                    -2.13141   0.59999  -2.57305 
 H                    -2.44893   1.84111  -3.46571 
 H                    -0.16301  -1.50179   1.02625 
 H                    -0.15235  -0.56065  -1.71044 
 Si                    2.12807   0.43243  -0.33245 
 O                     3.56129  -0.04203   0.267 
 O                     1.7306    1.94985   0.26538 
 O                     2.3717    0.72175  -1.99702 
 O                     0.91733  -0.59037  -0.1196 
 Ca                    5.40408  -0.50414  -1.16751 
 O                     5.83988   0.80959   0.97812 
 O                     4.69494  -2.33757   0.42499 
 O                     4.04338  -1.16104  -2.7932 
 O                     4.85871   1.72657  -2.08728 
 H                     4.00787  -1.63129   0.55648 
 H                     4.24057  -3.11141   0.08761 
 H                     4.84936   0.71239   0.9513 
 H                     6.03836   1.74485   1.03952 
 H                     2.82272  -0.05868  -2.41923 
 H                     3.84199  -1.95301  -3.28721 
 H                     3.88137   1.59657  -2.12239 
 H                     5.00703   2.53729  -1.59711 
 H                     0.76569   1.93837   0.42154 
 
 Add virtual bond connecting atoms O25        and H19        Dist= 3.44D+00.
 Add virtual bond connecting atoms O25        and H20        Dist= 3.62D+00.
 Add virtual bond connecting atoms H39        and O4         Dist= 3.34D+00.

 GradGradGradGradGradGradGradGradGradGradGradGradGradGradGradGradGradGrad
 Berny optimization.
 Initialization pass.
                           ----------------------------
                           !    Initial Parameters    !
                           ! (Angstroms and Degrees)  !
 --------------------------                            --------------------------
 ! Name  Definition              Value          Derivative Info.                !
 --------------------------------------------------------------------------------
 ! R1    R(1,2)                  1.6289         estimate D2E/DX2                !
 ! R2    R(1,3)                  1.7023         estimate D2E/DX2                !
 ! R3    R(1,4)                  1.6759         estimate D2E/DX2                !
 ! R4    R(1,5)                  1.6717         estimate D2E/DX2                !
 ! R5    R(2,6)                  2.329          estimate D2E/DX2                !
 ! R6    R(3,20)                 0.9692         estimate D2E/DX2                !
 ! R7    R(4,15)                 1.0028         estimate D2E/DX2                !
 ! R8    R(4,39)                 1.77           estimate D2E/DX2                !
 ! R9    R(5,19)                 0.9713         estimate D2E/DX2                !
 ! R10   R(6,7)                  2.6271         estimate D2E/DX2                !
 ! R11   R(6,8)                  2.5894         estimate D2E/DX2                !
 ! R12   R(6,9)                  2.2119         estimate D2E/DX2                !
 ! R13   R(6,10)                 2.452          estimate D2E/DX2                !
 ! R14   R(6,11)                 2.4868         estimate D2E/DX2                !
 ! R15   R(7,13)                 0.9962         estimate D2E/DX2                !
 ! R16   R(7,14)                 0.9593         estimate D2E/DX2                !
 ! R17   R(8,11)                 0.997          estimate D2E/DX2                !
 ! R18   R(8,12)                 0.9586         estimate D2E/DX2                !
 ! R19   R(9,16)                 0.9553         estimate D2E/DX2                !
 ! R20   R(10,17)                0.9859         estimate D2E/DX2                !
 ! R21   R(10,18)                0.9586         estimate D2E/DX2                !
 ! R22   R(19,25)                1.8196         estimate D2E/DX2                !
 ! R23   R(20,25)                1.9173         estimate D2E/DX2                !
 ! R24   R(21,22)                1.6244         estimate D2E/DX2                !
 ! R25   R(21,23)                1.6787         estimate D2E/DX2                !
 ! R26   R(21,24)                1.707          estimate D2E/DX2                !
 ! R27   R(21,25)                1.5992         estimate D2E/DX2                !
 ! R28   R(22,26)                2.3806         estimate D2E/DX2                !
 ! R29   R(23,39)                0.9775         estimate D2E/DX2                !
 ! R30   R(24,35)                0.9954         estimate D2E/DX2                !
 ! R31   R(26,27)                2.5533         estimate D2E/DX2                !
 ! R32   R(26,28)                2.5299         estimate D2E/DX2                !
 ! R33   R(26,29)                2.2194         estimate D2E/DX2                !
 ! R34   R(26,30)                2.4737         estimate D2E/DX2                !
 ! R35   R(26,31)                2.4884         estimate D2E/DX2                !
 ! R36   R(27,33)                0.9956         estimate D2E/DX2                !
 ! R37   R(27,34)                0.9581         estimate D2E/DX2                !
 ! R38   R(28,31)                0.9941         estimate D2E/DX2                !
 ! R39   R(28,32)                0.9587         estimate D2E/DX2                !
 ! R40   R(29,36)                0.9549         estimate D2E/DX2                !
 ! R41   R(30,37)                0.9866         estimate D2E/DX2                !
 ! R42   R(30,38)                0.9589         estimate D2E/DX2                !
 ! A1    A(2,1,3)               99.6071         estimate D2E/DX2                !
 ! A2    A(2,1,4)              104.5548         estimate D2E/DX2                !
 ! A3    A(2,1,5)              103.8263         estimate D2E/DX2                !
 ! A4    A(3,1,4)              113.404          estimate D2E/DX2                !
 ! A5    A(3,1,5)              117.4032         estimate D2E/DX2                !
 ! A6    A(4,1,5)              115.1856         estimate D2E/DX2                !
 ! A7    A(1,2,6)              125.6009         estimate D2E/DX2                !
 ! A8    A(1,3,20)             105.2366         estimate D2E/DX2                !
 ! A9    A(1,4,15)             111.8831         estimate D2E/DX2                !
 ! A10   A(1,4,39)             124.0947         estimate D2E/DX2                !
 ! A11   A(15,4,39)            115.8015         estimate D2E/DX2                !
 ! A12   A(1,5,19)             103.2403         estimate D2E/DX2                !
 ! A13   A(2,6,7)               61.6069         estimate D2E/DX2                !
 ! A14   A(2,6,8)               61.8342         estimate D2E/DX2                !
 ! A15   A(2,6,9)               87.9368         estimate D2E/DX2                !
 ! A16   A(2,6,10)              80.8911         estimate D2E/DX2                !
 ! A17   A(2,6,11)              39.4373         estimate D2E/DX2                !
 ! A18   A(7,6,8)               82.2382         estimate D2E/DX2                !
 ! A19   A(7,6,9)              148.8998         estimate D2E/DX2                !
 ! A20   A(7,6,10)              74.3177         estimate D2E/DX2                !
 ! A21   A(7,6,11)              74.2882         estimate D2E/DX2                !
 ! A22   A(8,6,9)               88.9712         estimate D2E/DX2                !
 ! A23   A(8,6,10)             142.2222         estimate D2E/DX2                !
 ! A24   A(9,6,10)              96.0039         estimate D2E/DX2                !
 ! A25   A(9,6,11)              86.2585         estimate D2E/DX2                !
 ! A26   A(10,6,11)            120.27           estimate D2E/DX2                !
 ! A27   A(6,7,13)              71.7829         estimate D2E/DX2                !
 ! A28   A(6,7,14)             109.4554         estimate D2E/DX2                !
 ! A29   A(13,7,14)            105.9521         estimate D2E/DX2                !
 ! A30   A(6,8,12)             115.5602         estimate D2E/DX2                !
 ! A31   A(11,8,12)            106.709          estimate D2E/DX2                !
 ! A32   A(6,9,16)             138.9899         estimate D2E/DX2                !
 ! A33   A(6,10,17)            107.7084         estimate D2E/DX2                !
 ! A34   A(6,10,18)            125.0752         estimate D2E/DX2                !
 ! A35   A(17,10,18)           106.827          estimate D2E/DX2                !
 ! A36   A(5,19,25)            124.1215         estimate D2E/DX2                !
 ! A37   A(3,20,25)            120.0529         estimate D2E/DX2                !
 ! A38   A(22,21,23)           109.9694         estimate D2E/DX2                !
 ! A39   A(22,21,24)           106.4658         estimate D2E/DX2                !
 ! A40   A(22,21,25)           115.5997         estimate D2E/DX2                !
 ! A41   A(23,21,24)           103.1712         estimate D2E/DX2                !
 ! A42   A(23,21,25)           110.5776         estimate D2E/DX2                !
 ! A43   A(24,21,25)           110.2586         estimate D2E/DX2                !
 ! A44   A(21,22,26)           121.1526         estimate D2E/DX2                !
 ! A45   A(21,23,39)           106.2597         estimate D2E/DX2                !
 ! A46   A(21,24,35)           110.2065         estimate D2E/DX2                !
 ! A47   A(19,25,20)           101.4802         estimate D2E/DX2                !
 ! A48   A(19,25,21)           148.6182         estimate D2E/DX2                !
 ! A49   A(20,25,21)           107.5809         estimate D2E/DX2                !
 ! A50   A(22,26,27)            61.698          estimate D2E/DX2                !
 ! A51   A(22,26,28)            62.8953         estimate D2E/DX2                !
 ! A52   A(22,26,29)            91.3896         estimate D2E/DX2                !
 ! A53   A(22,26,30)            83.0125         estimate D2E/DX2                !
 ! A54   A(22,26,31)            40.1917         estimate D2E/DX2                !
 ! A55   A(27,26,28)            83.7856         estimate D2E/DX2                !
 ! A56   A(27,26,29)           150.7439         estimate D2E/DX2                !
 ! A57   A(27,26,30)            83.4602         estimate D2E/DX2                !
 ! A58   A(27,26,31)            75.3231         estimate D2E/DX2                !
 ! A59   A(28,26,29)            94.2855         estimate D2E/DX2                !
 ! A60   A(28,26,30)           145.6644         estimate D2E/DX2                !
 ! A61   A(29,26,30)            81.9171         estimate D2E/DX2                !
 ! A62   A(29,26,31)            91.6851         estimate D2E/DX2                !
 ! A63   A(30,26,31)           122.8444         estimate D2E/DX2                !
 ! A64   A(26,27,33)            75.9558         estimate D2E/DX2                !
 ! A65   A(26,27,34)           126.2624         estimate D2E/DX2                !
 ! A66   A(33,27,34)           107.6464         estimate D2E/DX2                !
 ! A67   A(26,28,32)           119.7549         estimate D2E/DX2                !
 ! A68   A(31,28,32)           107.0057         estimate D2E/DX2                !
 ! A69   A(26,29,36)           138.9144         estimate D2E/DX2                !
 ! A70   A(26,30,37)            96.4774         estimate D2E/DX2                !
 ! A71   A(26,30,38)           122.5634         estimate D2E/DX2                !
 ! A72   A(37,30,38)           106.4291         estimate D2E/DX2                !
 ! A73   A(4,39,23)            161.0438         estimate D2E/DX2                !
 ! D1    D(3,1,2,6)            -71.8675         estimate D2E/DX2                !
 ! D2    D(4,1,2,6)             45.5304         estimate D2E/DX2                !
 ! D3    D(5,1,2,6)            166.6403         estimate D2E/DX2                !
 ! D4    D(2,1,3,20)          -177.1336         estimate D2E/DX2                !
 ! D5    D(4,1,3,20)            72.3184         estimate D2E/DX2                !
 ! D6    D(5,1,3,20)           -65.9865         estimate D2E/DX2                !
 ! D7    D(2,1,4,15)           -19.9325         estimate D2E/DX2                !
 ! D8    D(2,1,4,39)          -166.8934         estimate D2E/DX2                !
 ! D9    D(3,1,4,15)            87.5408         estimate D2E/DX2                !
 ! D10   D(3,1,4,39)           -59.4201         estimate D2E/DX2                !
 ! D11   D(5,1,4,15)          -133.1945         estimate D2E/DX2                !
 ! D12   D(5,1,4,39)            79.8446         estimate D2E/DX2                !
 ! D13   D(2,1,5,19)           174.8091         estimate D2E/DX2                !
 ! D14   D(3,1,5,19)            66.0746         estimate D2E/DX2                !
 ! D15   D(4,1,5,19)           -71.5046         estimate D2E/DX2                !
 ! D16   D(1,2,6,7)            130.6509         estimate D2E/DX2                !
 ! D17   D(1,2,6,8)           -132.7296         estimate D2E/DX2                !
 ! D18   D(1,2,6,9)            -42.7921         estimate D2E/DX2                !
 ! D19   D(1,2,6,10)            53.6257         estimate D2E/DX2                !
 ! D20   D(1,2,6,11)          -129.41           estimate D2E/DX2                !
 ! D21   D(1,3,20,25)            5.1102         estimate D2E/DX2                !
 ! D22   D(1,4,39,23)           -3.6063         estimate D2E/DX2                !
 ! D23   D(15,4,39,23)        -149.4156         estimate D2E/DX2                !
 ! D24   D(1,5,19,25)           -4.662          estimate D2E/DX2                !
 ! D25   D(2,6,7,13)            -4.4336         estimate D2E/DX2                !
 ! D26   D(2,6,7,14)          -105.4214         estimate D2E/DX2                !
 ! D27   D(8,6,7,13)           -66.5385         estimate D2E/DX2                !
 ! D28   D(8,6,7,14)          -167.5263         estimate D2E/DX2                !
 ! D29   D(9,6,7,13)             8.3301         estimate D2E/DX2                !
 ! D30   D(9,6,7,14)           -92.6577         estimate D2E/DX2                !
 ! D31   D(10,6,7,13)           83.5516         estimate D2E/DX2                !
 ! D32   D(10,6,7,14)          -17.4362         estimate D2E/DX2                !
 ! D33   D(11,6,7,13)          -44.9742         estimate D2E/DX2                !
 ! D34   D(11,6,7,14)         -145.9619         estimate D2E/DX2                !
 ! D35   D(2,6,8,12)           106.2604         estimate D2E/DX2                !
 ! D36   D(7,6,8,12)           168.1354         estimate D2E/DX2                !
 ! D37   D(9,6,8,12)            18.05           estimate D2E/DX2                !
 ! D38   D(10,6,8,12)          116.5378         estimate D2E/DX2                !
 ! D39   D(2,6,9,16)           165.7188         estimate D2E/DX2                !
 ! D40   D(7,6,9,16)           154.5045         estimate D2E/DX2                !
 ! D41   D(8,6,9,16)          -132.4297         estimate D2E/DX2                !
 ! D42   D(10,6,9,16)           85.1043         estimate D2E/DX2                !
 ! D43   D(11,6,9,16)         -154.8254         estimate D2E/DX2                !
 ! D44   D(2,6,10,17)          -13.2208         estimate D2E/DX2                !
 ! D45   D(2,6,10,18)         -139.7702         estimate D2E/DX2                !
 ! D46   D(7,6,10,17)          -76.1432         estimate D2E/DX2                !
 ! D47   D(7,6,10,18)          157.3074         estimate D2E/DX2                !
 ! D48   D(8,6,10,17)          -22.3869         estimate D2E/DX2                !
 ! D49   D(8,6,10,18)         -148.9363         estimate D2E/DX2                !
 ! D50   D(9,6,10,17)           73.7109         estimate D2E/DX2                !
 ! D51   D(9,6,10,18)          -52.8385         estimate D2E/DX2                !
 ! D52   D(11,6,10,17)         -15.4531         estimate D2E/DX2                !
 ! D53   D(11,6,10,18)        -142.0025         estimate D2E/DX2                !
 ! D54   D(5,19,25,20)         -39.352          estimate D2E/DX2                !
 ! D55   D(5,19,25,21)         118.2929         estimate D2E/DX2                !
 ! D56   D(3,20,25,19)          38.585          estimate D2E/DX2                !
 ! D57   D(3,20,25,21)        -129.4236         estimate D2E/DX2                !
 ! D58   D(23,21,22,26)       -119.5492         estimate D2E/DX2                !
 ! D59   D(24,21,22,26)         -8.4365         estimate D2E/DX2                !
 ! D60   D(25,21,22,26)        114.3818         estimate D2E/DX2                !
 ! D61   D(22,21,23,39)       -142.1981         estimate D2E/DX2                !
 ! D62   D(24,21,23,39)        104.5511         estimate D2E/DX2                !
 ! D63   D(25,21,23,39)        -13.3343         estimate D2E/DX2                !
 ! D64   D(22,21,24,35)         50.6866         estimate D2E/DX2                !
 ! D65   D(23,21,24,35)        166.4664         estimate D2E/DX2                !
 ! D66   D(25,21,24,35)        -75.4248         estimate D2E/DX2                !
 ! D67   D(22,21,25,19)         61.5515         estimate D2E/DX2                !
 ! D68   D(22,21,25,20)       -141.4652         estimate D2E/DX2                !
 ! D69   D(23,21,25,19)        -64.2074         estimate D2E/DX2                !
 ! D70   D(23,21,25,20)         92.7759         estimate D2E/DX2                !
 ! D71   D(24,21,25,19)       -177.661          estimate D2E/DX2                !
 ! D72   D(24,21,25,20)        -20.6777         estimate D2E/DX2                !
 ! D73   D(21,22,26,27)        137.5178         estimate D2E/DX2                !
 ! D74   D(21,22,26,28)       -124.579          estimate D2E/DX2                !
 ! D75   D(21,22,26,29)        -30.4757         estimate D2E/DX2                !
 ! D76   D(21,22,26,30)         51.206          estimate D2E/DX2                !
 ! D77   D(21,22,26,31)       -121.4422         estimate D2E/DX2                !
 ! D78   D(21,23,39,4)           0.93           estimate D2E/DX2                !
 ! D79   D(22,26,27,33)         -5.6599         estimate D2E/DX2                !
 ! D80   D(22,26,27,34)       -107.4333         estimate D2E/DX2                !
 ! D81   D(28,26,27,33)        -68.1502         estimate D2E/DX2                !
 ! D82   D(28,26,27,34)       -169.9237         estimate D2E/DX2                !
 ! D83   D(29,26,27,33)         19.5241         estimate D2E/DX2                !
 ! D84   D(29,26,27,34)        -82.2494         estimate D2E/DX2                !
 ! D85   D(30,26,27,33)         79.9044         estimate D2E/DX2                !
 ! D86   D(30,26,27,34)        -21.8691         estimate D2E/DX2                !
 ! D87   D(31,26,27,33)        -46.5621         estimate D2E/DX2                !
 ! D88   D(31,26,27,34)       -148.3355         estimate D2E/DX2                !
 ! D89   D(22,26,28,32)        107.1582         estimate D2E/DX2                !
 ! D90   D(27,26,28,32)        168.4709         estimate D2E/DX2                !
 ! D91   D(29,26,28,32)         17.7905         estimate D2E/DX2                !
 ! D92   D(30,26,28,32)         99.7266         estimate D2E/DX2                !
 ! D93   D(22,26,29,36)       -116.3101         estimate D2E/DX2                !
 ! D94   D(27,26,29,36)       -138.3202         estimate D2E/DX2                !
 ! D95   D(28,26,29,36)        -53.3887         estimate D2E/DX2                !
 ! D96   D(30,26,29,36)        160.9488         estimate D2E/DX2                !
 ! D97   D(31,26,29,36)        -76.1044         estimate D2E/DX2                !
 ! D98   D(22,26,30,37)        -44.2791         estimate D2E/DX2                !
 ! D99   D(22,26,30,38)         69.9413         estimate D2E/DX2                !
 ! D100  D(27,26,30,37)       -106.4559         estimate D2E/DX2                !
 ! D101  D(27,26,30,38)          7.7645         estimate D2E/DX2                !
 ! D102  D(28,26,30,37)        -37.6179         estimate D2E/DX2                !
 ! D103  D(28,26,30,38)         76.6025         estimate D2E/DX2                !
 ! D104  D(29,26,30,37)         48.1327         estimate D2E/DX2                !
 ! D105  D(29,26,30,38)        162.3531         estimate D2E/DX2                !
 ! D106  D(31,26,30,37)        -38.6383         estimate D2E/DX2                !
 ! D107  D(31,26,30,38)         75.5821         estimate D2E/DX2                !
 --------------------------------------------------------------------------------
 Trust Radius=3.00D-01 FncErr=1.00D-07 GrdErr=1.00D-06 EigMax=2.50D+02 EigMin=1.00D-04
 Number of steps in this run=    234 maximum allowed number of steps=    234.
 GradGradGradGradGradGradGradGradGradGradGradGradGradGradGradGradGradGrad

                          Input orientation:                          
 ---------------------------------------------------------------------
 Center     Atomic      Atomic             Coordinates (Angstroms)
 Number     Number       Type             X           Y           Z
 ---------------------------------------------------------------------
      1         14           0       -1.418021   -0.140325    0.000000
      2          8           0       -3.042923   -0.033324   -0.040670
      3          8           0       -1.111417   -0.435644   -1.648180
      4          8           0       -0.909001    1.372348    0.511179
      5          8           0       -1.126597   -1.389027    1.072616
      6         20           0       -4.263207    1.729662   -0.950013
      7          8           0       -4.905489   -0.721984   -1.641754
      8          8           0       -4.928130    0.866353    1.398941
      9          8           0       -2.827450    3.112632    0.008471
     10          8           0       -2.853076    1.195581   -2.883576
     11          1           0       -4.100935    0.378312    1.131229
     12          1           0       -4.687465    1.435182    2.132078
     13          1           0       -4.095901   -0.763726   -1.062799
     14          1           0       -4.599908   -0.892400   -2.535018
     15          1           0       -1.614131    2.071348    0.370252
     16          1           0       -2.575320    4.033064   -0.033744
     17          1           0       -2.131410    0.599992   -2.573045
     18          1           0       -2.448927    1.841113   -3.465709
     19          1           0       -0.163008   -1.501792    1.026246
     20          1           0       -0.152352   -0.560648   -1.710436
     21         14           0        2.128071    0.432427   -0.332450
     22          8           0        3.561286   -0.042034    0.266999
     23          8           0        1.730601    1.949851    0.265382
     24          8           0        2.371699    0.721752   -1.997021
     25          8           0        0.917329   -0.590367   -0.119595
     26         20           0        5.404081   -0.504136   -1.167514
     27          8           0        5.839881    0.809592    0.978123
     28          8           0        4.694937   -2.337567    0.424991
     29          8           0        4.043381   -1.161041   -2.793195
     30          8           0        4.858709    1.726568   -2.087277
     31          1           0        4.007871   -1.631293    0.556480
     32          1           0        4.240568   -3.111411    0.087609
     33          1           0        4.849360    0.712386    0.951301
     34          1           0        6.038363    1.744848    1.039524
     35          1           0        2.822719   -0.058681   -2.419227
     36          1           0        3.841987   -1.953008   -3.287206
     37          1           0        3.881369    1.596568   -2.122394
     38          1           0        5.007033    2.537292   -1.597114
     39          1           0        0.765693    1.938368    0.421541
 ---------------------------------------------------------------------
                    Distance matrix (angstroms):
                    1          2          3          4          5
     1  Si   0.000000
     2  O    1.628929   0.000000
     3  O    1.702268   2.544929   0.000000
     4  O    1.675883   2.614206   2.823586   0.000000
     5  O    1.671733   2.598007   2.883037   2.826261   0.000000
     6  Ca   3.534750   2.328973   3.887128   3.676065   4.863699
     7  O    3.898220   2.550858   3.804867   4.999326   4.700295
     8  O    3.910409   2.536908   5.054448   4.146993   4.432255
     9  O    3.545179   3.153709   4.275456   2.638513   4.928513
    10  O    3.486981   3.102961   2.687094   3.915997   5.031141
    11  H    2.957481   1.631619   4.162314   3.400149   3.460290
    12  H    4.209186   3.095458   5.529779   4.111940   4.666733
    13  H    2.947747   1.639206   3.058995   4.146872   3.710494
    14  H    4.137190   3.063329   3.628316   5.294449   5.032450
    15  H    2.251009   2.576810   3.257575   1.002831   3.564435
    16  H    4.331011   4.093191   4.971797   3.186373   5.720306
    17  H    2.770840   2.764935   1.722876   3.406355   4.272785
    18  H    4.123106   3.949334   3.205615   4.290309   5.725273
    19  H    2.117034   3.404206   3.031288   3.013715   0.971272
    20  H    2.168912   3.379584   0.969179   3.040488   3.062800
    21  Si   3.607400   5.200119   3.602634   3.289220   3.985570
    22  O    4.987429   6.611378   5.065273   4.695058   4.943648
    23  O    3.788546   5.178145   4.174850   2.713195   4.468032
    24  O    4.369582   5.806512   3.686916   4.180590   5.110395
    25  O    2.381323   4.000015   2.544862   2.754198   2.497370
    26  Ca   6.930839   8.534830   6.533563   6.796632   6.960673
    27  O    7.384863   8.980682   7.534496   6.788383   7.305797
    28  O    6.509742   8.087079   6.452061   6.721236   5.933751
    29  O    6.218578   7.685301   5.330028   6.470165   6.459500
    30  O    6.873089   8.349947   6.364776   6.335923   7.450889
    31  H    5.654464   7.254226   5.700633   5.761904   5.166029
    32  H    6.391765   7.908244   6.230284   6.841167   5.722177
    33  H    6.396261   7.989257   6.603494   5.812743   6.335828
    34  H    7.760937   9.316570   7.943403   6.977376   7.820417
    35  H    4.882950   6.329608   4.026666   4.955891   5.436900
    36  H    6.462138   7.850297   5.433692   6.932359   6.634226
    37  H    5.966983   7.411878   5.411347   5.471163   6.648428
    38  H    7.141549   8.592577   6.802675   6.387601   7.756601
    39  H    3.044219   4.313556   3.666500   1.770032   3.882811
                    6          7          8          9         10
     6  Ca   0.000000
     7  O    2.627090   0.000000
     8  O    2.589403   3.430620   0.000000
     9  O    2.211944   4.663236   3.375209   0.000000
    10  O    2.452015   3.071087   4.770135   3.469824   0.000000
    11  H    2.486774   3.089886   0.997048   3.218518   4.282959
    12  H    3.125060   4.352322   0.958632   3.283778   5.345950
    13  H    2.501539   0.996175   3.067560   4.216958   2.949360
    14  H    3.082340   0.959345   4.321687   5.064704   2.744554
    15  H    2.979505   4.762763   3.673255   1.639299   3.590174
    16  H    2.999029   5.534064   4.197185   0.955273   4.031129
    17  H    2.907739   3.210987   4.865107   3.669067   0.985879
    18  H    3.103669   3.991363   5.546298   3.718866   0.958607
    19  H    5.582072   5.497040   5.334173   5.424760   5.458846
    20  H    4.766853   4.756370   5.874744   4.858372   3.428485
    21  Si   6.550774   7.246924   7.278460   5.644193   5.648227
    22  O    8.114352   8.705857   8.612586   7.129846   7.252714
    23  O    6.119755   7.403618   6.840879   4.711039   5.612037
    24  O    6.792208   7.427520   8.052389   6.063782   5.320598
    25  O    5.736731   6.019925   6.212679   5.268014   5.004513
    26  Ca   9.924395  10.322771  10.734035   9.067638   8.603171
    27  O   10.326501  11.165682  10.776380   9.020357   9.519937
    28  O    9.933848   9.952373  10.189068   9.298627   8.966730
    29  O    8.986261   9.033320  10.108033   8.562823   7.288550
    30  O    9.192537  10.076381  10.424774   8.086431   7.770950
    31  H    9.054075   9.225349   9.316657   8.338270   8.179107
    32  H    9.840063   9.609912  10.080041   9.418166   8.814642
    33  H    9.364226  10.195020   9.788943   8.098365   8.617847
    34  H   10.491941  11.534401  11.007493   9.029759   9.733966
    35  H    7.454335   7.795488   8.689635   6.919202   5.831247
    36  H    9.204276   8.985615  10.335556   9.000199   7.409480
    37  H    8.229600   9.100306   9.515266   7.200506   6.789178
    38  H    9.327827  10.434700  10.510749   8.017982   8.076911
    39  H    5.216757   6.595223   5.875725   3.802657   4.956916
                   11         12         13         14         15
    11  H    0.000000
    12  H    1.569296   0.000000
    13  H    2.473466   3.923313   0.000000
    14  H    3.912167   5.216042   1.561412   0.000000
    15  H    3.103168   3.599183   4.031186   5.112657   0.000000
    16  H    4.128181   3.987597   5.136177   5.883496   2.221582
    17  H    4.201168   5.419330   2.828391   2.884816   3.330985
    18  H    5.099094   6.042438   3.907900   3.600694   3.932491
    19  H    4.364984   5.506305   4.514033   5.721891   3.911958
    20  H    4.954595   6.270207   4.001531   4.535499   3.659708
    21  Si   6.398891   7.316485   6.379813   7.202234   4.145350
    22  O    7.722255   8.585021   7.805236   8.670612   5.591242
    23  O    6.101331   6.703806   6.563207   7.483046   3.348581
    24  O    7.197145   8.209156   6.701438   7.176227   4.828274
    25  O    5.261737   6.370761   5.104132   6.030373   3.705802
    26  Ca   9.818771  10.792940   9.504105  10.104485   7.632375
    27  O    9.951345  10.608864  10.264524  11.145767   7.584447
    28  O    9.232667  10.255596   9.053691   9.861253   7.697134
    29  O    9.170638  10.355016   8.330669   8.651316   7.243147
    30  O    9.615186  10.441135   9.350730   9.824709   6.932242
    31  H    8.373863   9.353857   8.309384   9.175902   6.734325
    32  H    9.102087  10.225514   8.736806   9.484524   7.824217
    33  H    8.958335   9.636789   9.287260  10.198942   6.630318
    34  H   10.231383  10.785776  10.649695  11.528453   7.688640
    35  H    7.793182   8.907798   7.085498   7.470200   5.657195
    36  H    9.383370  10.658331   8.329012   8.541444   7.703354
    37  H    8.705595   9.568254   8.386332   8.848575   6.053034
    38  H    9.749879  10.445325   9.697712  10.243816   6.922965
    39  H    5.159603   5.737252   5.756707   6.748642   2.384088
                   16         17         18         19         20
    16  H    0.000000
    17  H    4.293144   0.000000
    18  H    4.074188   1.561425   0.000000
    19  H    6.130046   4.609447   6.047983   0.000000
    20  H    5.457496   2.451092   3.758151   2.894010   0.000000
    21  Si   5.930910   4.815758   5.722816   3.291854   2.843479
    22  O    7.372571   6.394125   7.321339   4.071574   4.239141
    23  O    4.792725   4.979349   5.603688   4.009802   3.708365
    24  O    6.268352   4.541434   5.162214   4.528690   2.845613
    25  O    5.795005   4.090377   5.332940   1.819554   1.917257
    26  Ca   9.248917   7.744562   8.511852   6.066332   5.583181
    27  O    9.068090   8.729044   9.461290   6.432689   6.709155
    28  O    9.677397   8.013519   9.145147   4.965849   5.586922
    29  O    8.854406   6.424776   7.184377   5.691920   4.374587
    30  O    8.049951   7.096965   7.437388   6.733051   5.521241
    31  H    8.704695   7.243158   8.362168   4.199248   4.857226
    32  H    9.874947   7.839368   9.050022   4.781568   5.388609
    33  H    8.192868   7.820793   8.605173   5.480149   5.807115
    34  H    8.976824   9.005917   9.609396   6.999846   7.155595
    35  H    7.181346   5.000090   5.700403   4.782094   3.099258
    36  H    9.359482   6.535236   7.348661   5.903342   4.514379
    37  H    7.210257   6.111445   6.475874   5.989220   4.592842
    38  H    7.885020   7.460760   7.718008   7.065801   6.019080
    39  H    3.969560   4.376300   5.045191   3.614257   3.410750
                   21         22         23         24         25
    21  Si   0.000000
    22  O    1.624364   0.000000
    23  O    1.678678   2.705368   0.000000
    24  O    1.707003   2.669133   2.652867   0.000000
    25  O    1.599159   2.727752   2.694870   2.713223   0.000000
    26  Ca   3.508094   2.380601   4.644319   3.374348   4.608309
    27  O    3.954414   2.534356   4.323699   4.570283   5.234156
    28  O    3.851673   2.565073   5.214855   4.541256   4.197571
    29  O    3.501831   3.293840   4.937762   2.640705   4.152831
    30  O    3.494367   3.217744   3.920449   2.683844   4.977393
    31  H    2.929639   1.676002   4.253856   3.838521   3.330474
    32  H    4.147033   3.148758   5.652248   4.746735   4.176424
    33  H    3.021888   1.642119   3.424684   3.851168   4.278417
    34  H    4.346855   3.150500   4.381568   4.869472   5.746458
    35  H    2.253522   2.785959   3.526195   0.995366   3.033399
    36  H    4.166340   4.045119   5.684289   3.313709   4.521523
    37  H    2.762821   2.914905   3.232969   1.749321   4.192782
    38  H    3.783947   3.495429   3.814313   3.225073   5.356397
    39  H    2.166203   3.429463   0.977530   3.147833   2.590429
                   26         27         28         29         30
    26  Ca   0.000000
    27  O    2.553343   0.000000
    28  O    2.529906   3.394328   0.000000
    29  O    2.219430   4.618836   3.487902   0.000000
    30  O    2.473749   3.346673   4.780743   3.082429   0.000000
    31  H    2.488381   3.080903   0.994068   3.382709   4.357592
    32  H    3.118811   4.327249   0.958703   3.484517   5.340250
    33  H    2.505398   0.995641   3.098881   4.263869   3.203375
    34  H    3.214228   0.958055   4.341492   5.207099   3.341976
    35  H    2.903213   4.625922   4.097328   1.686732   2.728106
    36  H    3.005405   5.460455   3.828292   0.954892   4.001604
    37  H    2.764671   3.750774   4.756940   2.842645   0.986573
    38  H    3.097174   3.210986   5.286829   4.004610   0.958923
    39  H    5.477734   5.227935   5.807116   5.539323   4.805394
                   31         32         33         34         35
    31  H    0.000000
    32  H    1.569948   0.000000
    33  H    2.521273   3.967117   0.000000
    34  H    3.969201   5.265117   1.577178   0.000000
    35  H    3.568267   4.196866   4.007777   5.055298   0.000000
    36  H    3.860692   3.590284   5.107256   6.100721   2.319649
    37  H    4.196600   5.213272   3.341614   3.830448   1.987133
    38  H    4.797228   5.944208   3.138401   2.939978   3.490870
    39  H    4.824148   6.138936   4.296512   5.312288   4.036028
                   36         37         38         39
    36  H    0.000000
    37  H    3.736018   0.000000
    38  H    4.937260   1.558204   0.000000
    39  H    6.193642   4.036814   4.735255   0.000000
 Symmetry turned off by external request.
 Stoichiometry    Ca2H19O16Si2(1-)
 Framework group  C1[X(Ca2H19O16Si2)]
 Deg. of freedom   111
 Full point group                 C1      NOp   1
 Rotational constants (GHZ):           0.4438150           0.0840381           0.0835202
 Standard basis: 6-311++G(d,p) (5D, 7F)
   631 basis functions,   997 primitive gaussians,   653 cartesian basis functions
   108 alpha electrons      108 beta electrons
       nuclear repulsion energy      2874.2924184829 Hartrees.
 NAtoms=   39 NActive=   39 NUniq=   39 SFac= 1.00D+00 NAtFMM=   60 NAOKFM=F Big=F
 Integral buffers will be    131072 words long.
 Raffenetti 2 integral format.
 Two-electron integral symmetry is turned off.
 Nuclear repulsion after empirical dispersion term =     2874.2603392881 Hartrees.
 ------------------------------------------------------------------------------
 Polarizable Continuum Model (PCM)
 =================================
 Model                : C-PCM.
 Atomic radii         : UFF (Universal Force Field).
 Polarization charges : Total charges.
 Charge compensation  : None.
 Solution method      : On-the-fly selection.
 Cavity type          : Scaled VdW (van der Waals Surface) (Alpha=1.100).
 Cavity algorithm     : GePol (No added spheres)
                        Default sphere list used, NSphG=   39.
                        Lebedev-Laikov grids with approx.  5.0 points / Ang**2.
                        Smoothing algorithm: York/Karplus (Gamma=1.0000).
                        Polarization charges: spherical gaussians, with
                                              point-specific exponents (IZeta= 3).
                        Self-potential: point-specific (ISelfS= 7).
                        Self-field    : sphere-specific E.n sum rule (ISelfD= 2).
 1st derivatives      : Analytical E(r).r(x)/FMM algorithm (CHGder, D1EAlg=3).
                        Cavity 1st derivative terms included.
 Solvent              : Water, Eps=  78.355300 Eps(inf)=   1.777849
 ------------------------------------------------------------------------------
 One-electron integrals computed using PRISM.
 NBasis=   631 RedAO= T EigKep=  6.94D-05  NBF=   631
 NBsUse=   631 1.00D-06 EigRej= -1.00D+00 NBFU=   631
 ExpMin= 7.10D-03 ExpMax= 2.03D+05 ExpMxC= 6.92D+03 IAcc=3 IRadAn=         5 AccDes= 0.00D+00
 Harris functional with IExCor= 4639 and IRadAn=       5 diagonalized for initial guess.
 HarFok:  IExCor= 4639 AccDes= 0.00D+00 IRadAn=         5 IDoV= 1 UseB2=F ITyADJ=14
 ICtDFT=  3500011 ScaDFX=  1.000000  1.000000  1.000000  1.000000
 FoFCou: FMM=F IPFlag=           0 FMFlag=      100000 FMFlg1=           0
         NFxFlg=           0 DoJE=T BraDBF=F KetDBF=T FulRan=T
         wScrn=  0.000000 ICntrl=       500 IOpCl=  0 I1Cent=   200000004 NGrid=           0
         NMat0=    1 NMatS0=      1 NMatT0=    0 NMatD0=    1 NMtDS0=    0 NMtDT0=    0
 Symmetry not used in FoFCou.
 Requested convergence on RMS density matrix=1.00D-08 within 800 cycles.
 Requested convergence on MAX density matrix=1.00D-06.
 Requested convergence on             energy=1.00D-06.
 No special actions if energy rises.
 Inv3:  Mode=1 IEnd=    33567075.
 Iteration    1 A*A^-1 deviation from unit magnitude is 6.33D-15 for   3328.
 Iteration    1 A*A^-1 deviation from orthogonality  is 3.26D-15 for   3328   2630.
 Iteration    1 A^-1*A deviation from unit magnitude is 6.22D-15 for   3328.
 Iteration    1 A^-1*A deviation from orthogonality  is 3.91D-15 for   2837   2528.
 Error on total polarization charges =  0.02386
 SCF Done:  E(RwB97XD) =  -3150.31942651     A.U. after   14 cycles
            NFock= 14  Conv=0.36D-08     -V/T= 2.0021

 **********************************************************************

            Population analysis using the SCF Density.

 **********************************************************************

 Alpha  occ. eigenvalues -- -145.47717-145.47449 -66.27915 -66.24387 -19.25567
 Alpha  occ. eigenvalues --  -19.25399 -19.24539 -19.24282 -19.23900 -19.23754
 Alpha  occ. eigenvalues --  -19.22098 -19.20877 -19.20263 -19.20196 -19.19799
 Alpha  occ. eigenvalues --  -19.16427 -19.16301 -19.16193 -19.15873 -19.14372
 Alpha  occ. eigenvalues --  -15.47279 -15.47008 -12.59192 -12.59178 -12.59133
 Alpha  occ. eigenvalues --  -12.58917 -12.58910 -12.58866  -5.40247  -5.37082
 Alpha  occ. eigenvalues --   -3.74776  -3.74755  -3.74724  -3.71656  -3.71587
 Alpha  occ. eigenvalues --   -3.71474  -1.82380  -1.82135  -1.12756  -1.12700
 Alpha  occ. eigenvalues --   -1.11992  -1.11521  -1.11333  -1.10743  -1.09492
 Alpha  occ. eigenvalues --   -1.09338  -1.09002  -1.08636  -1.08445  -1.08223
 Alpha  occ. eigenvalues --   -1.08025  -1.07044  -1.06524  -1.05602  -1.04373
 Alpha  occ. eigenvalues --   -0.98690  -0.98555  -0.98284  -0.98034  -0.96016
 Alpha  occ. eigenvalues --   -0.63937  -0.63374  -0.63091  -0.63022  -0.62196
 Alpha  occ. eigenvalues --   -0.61411  -0.59919  -0.59498  -0.56739  -0.55961
 Alpha  occ. eigenvalues --   -0.54432  -0.52199  -0.50983  -0.50207  -0.49227
 Alpha  occ. eigenvalues --   -0.48887  -0.48568  -0.48380  -0.48180  -0.47799
 Alpha  occ. eigenvalues --   -0.46275  -0.46026  -0.45402  -0.44126  -0.43191
 Alpha  occ. eigenvalues --   -0.42746  -0.42511  -0.42038  -0.41594  -0.41152
 Alpha  occ. eigenvalues --   -0.40818  -0.40577  -0.40188  -0.39810  -0.39323
 Alpha  occ. eigenvalues --   -0.38239  -0.37052  -0.36745  -0.35972  -0.35415
 Alpha  occ. eigenvalues --   -0.34997  -0.34432  -0.34189  -0.33893  -0.33534
 Alpha  occ. eigenvalues --   -0.33416  -0.32445  -0.31878
 Alpha virt. eigenvalues --    0.01464   0.01560   0.01947   0.01990   0.02337
 Alpha virt. eigenvalues --    0.02358   0.02390   0.03274   0.05442   0.05593
 Alpha virt. eigenvalues --    0.06717   0.06869   0.06941   0.07098   0.07295
 Alpha virt. eigenvalues --    0.07831   0.08139   0.08403   0.08646   0.08855
 Alpha virt. eigenvalues --    0.09316   0.09932   0.10108   0.10375   0.10669
 Alpha virt. eigenvalues --    0.11823   0.12092   0.12448   0.12752   0.13002
 Alpha virt. eigenvalues --    0.13139   0.13965   0.14376   0.14613   0.14837
 Alpha virt. eigenvalues --    0.15902   0.16257   0.16971   0.17185   0.17393
 Alpha virt. eigenvalues --    0.17520   0.17824   0.17882   0.18040   0.18240
 Alpha virt. eigenvalues --    0.18386   0.18634   0.18950   0.19870   0.21117
 Alpha virt. eigenvalues --    0.21255   0.21734   0.22118   0.22584   0.22692
 Alpha virt. eigenvalues --    0.22841   0.23094   0.23643   0.23761   0.24060
 Alpha virt. eigenvalues --    0.24567   0.24718   0.25220   0.25287   0.25745
 Alpha virt. eigenvalues --    0.25969   0.26438   0.26591   0.26758   0.27166
 Alpha virt. eigenvalues --    0.27249   0.27661   0.28107   0.28549   0.28907
 Alpha virt. eigenvalues --    0.29496   0.29652   0.29982   0.30162   0.30620
 Alpha virt. eigenvalues --    0.30909   0.31025   0.31335   0.31510   0.31786
 Alpha virt. eigenvalues --    0.31948   0.32481   0.32782   0.33000   0.33452
 Alpha virt. eigenvalues --    0.33548   0.33820   0.33992   0.34248   0.34273
 Alpha virt. eigenvalues --    0.34426   0.34753   0.35239   0.35558   0.35808
 Alpha virt. eigenvalues --    0.35926   0.36341   0.36664   0.37249   0.37440
 Alpha virt. eigenvalues --    0.37509   0.38005   0.38119   0.38453   0.38578
 Alpha virt. eigenvalues --    0.38895   0.39058   0.39319   0.39735   0.39934
 Alpha virt. eigenvalues --    0.40629   0.41228   0.41358   0.42310   0.42632
 Alpha virt. eigenvalues --    0.42815   0.43125   0.43495   0.43782   0.44641
 Alpha virt. eigenvalues --    0.45106   0.45333   0.45885   0.46216   0.46841
 Alpha virt. eigenvalues --    0.47489   0.47730   0.47989   0.48506   0.48701
 Alpha virt. eigenvalues --    0.49305   0.49610   0.50143   0.51129   0.51447
 Alpha virt. eigenvalues --    0.52262   0.52440   0.53521   0.53871   0.54169
 Alpha virt. eigenvalues --    0.54707   0.56343   0.56610   0.57246   0.58432
 Alpha virt. eigenvalues --    0.59117   0.59692   0.61080   0.61605   0.62850
 Alpha virt. eigenvalues --    0.63398   0.64784   0.65114   0.65608   0.66009
 Alpha virt. eigenvalues --    0.66294   0.66599   0.67409   0.68149   0.68577
 Alpha virt. eigenvalues --    0.68970   0.70712   0.71047   0.72119   0.74057
 Alpha virt. eigenvalues --    0.74363   0.74718   0.76499   0.76744   0.78460
 Alpha virt. eigenvalues --    0.80406   0.81081   0.84346   0.84669   0.87048
 Alpha virt. eigenvalues --    0.87417   0.88383   0.89313   0.91263   0.93196
 Alpha virt. eigenvalues --    0.96492   0.97653   1.02601   1.04383   1.05141
 Alpha virt. eigenvalues --    1.05489   1.07223   1.08186   1.09165   1.09286
 Alpha virt. eigenvalues --    1.09519   1.10439   1.11240   1.12154   1.13219
 Alpha virt. eigenvalues --    1.14021   1.14547   1.14848   1.16336   1.16864
 Alpha virt. eigenvalues --    1.17598   1.18400   1.18666   1.19223   1.19766
 Alpha virt. eigenvalues --    1.20153   1.20482   1.21062   1.21520   1.22308
 Alpha virt. eigenvalues --    1.22960   1.23421   1.24081   1.24488   1.24663
 Alpha virt. eigenvalues --    1.25520   1.26355   1.26701   1.27425   1.28008
 Alpha virt. eigenvalues --    1.28347   1.28680   1.29234   1.29799   1.30078
 Alpha virt. eigenvalues --    1.30664   1.31321   1.31488   1.31943   1.32250
 Alpha virt. eigenvalues --    1.32676   1.33103   1.33787   1.34105   1.34720
 Alpha virt. eigenvalues --    1.35140   1.36040   1.36629   1.37443   1.38446
 Alpha virt. eigenvalues --    1.39134   1.40348   1.40971   1.42136   1.43843
 Alpha virt. eigenvalues --    1.44497   1.45830   1.46551   1.47440   1.48453
 Alpha virt. eigenvalues --    1.48700   1.49538   1.50143   1.50889   1.51534
 Alpha virt. eigenvalues --    1.52334   1.52931   1.54137   1.54857   1.55767
 Alpha virt. eigenvalues --    1.56380   1.58025   1.58181   1.59416   1.59697
 Alpha virt. eigenvalues --    1.60875   1.61553   1.62116   1.62756   1.63115
 Alpha virt. eigenvalues --    1.64993   1.65567   1.67497   1.68351   1.68744
 Alpha virt. eigenvalues --    1.69457   1.70072   1.70982   1.71454   1.72488
 Alpha virt. eigenvalues --    1.72666   1.74209   1.75829   1.76758   1.77357
 Alpha virt. eigenvalues --    1.77784   1.78877   1.79234   1.80218   1.81006
 Alpha virt. eigenvalues --    1.82947   1.84378   1.85366   1.86270   1.87682
 Alpha virt. eigenvalues --    1.88817   1.90356   1.91981   1.93747   1.94969
 Alpha virt. eigenvalues --    1.95357   1.95944   1.97369   2.00529   2.00719
 Alpha virt. eigenvalues --    2.02887   2.04927   2.10182   2.16557   2.16688
 Alpha virt. eigenvalues --    2.17591   2.17822   2.17977   2.18675   2.23534
 Alpha virt. eigenvalues --    2.24211   2.27033   2.27875   2.27981   2.28851
 Alpha virt. eigenvalues --    2.30599   2.31535   2.33312   2.33917   2.40352
 Alpha virt. eigenvalues --    2.42231   2.43321   2.46120   2.47514   2.59120
 Alpha virt. eigenvalues --    2.59970   2.63381   2.65506   2.67431   2.69169
 Alpha virt. eigenvalues --    2.71476   2.71979   2.75413   2.78543   2.78773
 Alpha virt. eigenvalues --    2.80570   2.83545   2.85387   2.86119   2.89360
 Alpha virt. eigenvalues --    2.91285   2.92143   2.93248   2.96397   3.00421
 Alpha virt. eigenvalues --    3.00532   3.01005   3.01202   3.01794   3.02709
 Alpha virt. eigenvalues --    3.03963   3.06684   3.08732   3.09917   3.10252
 Alpha virt. eigenvalues --    3.11936   3.12344   3.13319   3.13592   3.14105
 Alpha virt. eigenvalues --    3.14450   3.16374   3.17832   3.17994   3.18272
 Alpha virt. eigenvalues --    3.19495   3.20264   3.21173   3.21331   3.21610
 Alpha virt. eigenvalues --    3.22067   3.22710   3.22909   3.23475   3.24143
 Alpha virt. eigenvalues --    3.24810   3.26017   3.27009   3.27940   3.28360
 Alpha virt. eigenvalues --    3.29087   3.29718   3.30179   3.30822   3.33375
 Alpha virt. eigenvalues --    3.34461   3.35583   3.36207   3.37466   3.39313
 Alpha virt. eigenvalues --    3.39756   3.40917   3.41461   3.41666   3.42956
 Alpha virt. eigenvalues --    3.44444   3.44975   3.45979   3.47602   3.48645
 Alpha virt. eigenvalues --    3.48944   3.59083   3.62983   3.67267   3.81932
 Alpha virt. eigenvalues --    3.82743   3.83382   3.84171   3.84582   3.84819
 Alpha virt. eigenvalues --    4.00577   4.01162   4.01964   4.02352   4.02744
 Alpha virt. eigenvalues --    4.03475   4.04174   4.05258   4.05685   4.06050
 Alpha virt. eigenvalues --    4.06813   4.08380   4.08751   4.48503   4.49926
 Alpha virt. eigenvalues --    4.54717   4.55940   4.57758   4.61648   5.12809
 Alpha virt. eigenvalues --    5.14411   5.15580   5.16956   5.17463   5.18468
 Alpha virt. eigenvalues --    5.18536   5.20064   5.20367   5.21249   5.21955
 Alpha virt. eigenvalues --    5.22341   5.22741   5.24325   5.24533   5.26857
 Alpha virt. eigenvalues --    5.27686   5.28298   5.30284   5.32001   5.34475
 Alpha virt. eigenvalues --    5.37494   5.38996   5.41778   5.42494   5.44192
 Alpha virt. eigenvalues --    5.45849   5.47716   5.48228   5.49358   5.51853
 Alpha virt. eigenvalues --    5.53460   5.54229   5.58065   5.59932   5.67992
 Alpha virt. eigenvalues --    5.69771   5.72335   5.75807   5.76063   5.76516
 Alpha virt. eigenvalues --    5.77571   5.78480   5.79647   5.79866   5.81133
 Alpha virt. eigenvalues --    5.81359   5.83694   6.21452   6.22674  11.66620
 Alpha virt. eigenvalues --   11.69100  11.70478  11.74225  11.84802  11.89472
 Alpha virt. eigenvalues --   14.93579  14.94551  50.03469  50.03815  50.04384
 Alpha virt. eigenvalues --   50.05072  50.05354  50.06057  50.10472  50.11593
 Alpha virt. eigenvalues --   50.12633  50.13781  50.14144  50.16477  50.16990
 Alpha virt. eigenvalues --   50.19136  50.20260  50.22801 108.66207 108.67089
 Alpha virt. eigenvalues --  108.70054 108.70545 108.72564 108.75074 141.65450
 Alpha virt. eigenvalues --  141.70078 318.04117 318.05200
          Condensed to atoms (all electrons):
               1          2          3          4          5          6
     1  Si  12.947455   0.030186  -0.121368   0.063249   0.041458   0.005593
     2  O    0.030186   9.198695  -0.021819  -0.035674  -0.117506   0.052021
     3  O   -0.121368  -0.021819   8.577409   0.051714   0.063970  -0.004528
     4  O    0.063249  -0.035674   0.051714   8.647011   0.034671  -0.000228
     5  O    0.041458  -0.117506   0.063970   0.034671   8.488647   0.011362
     6  Ca   0.005593   0.052021  -0.004528  -0.000228   0.011362  18.484614
     7  O   -0.028584  -0.045170   0.002466  -0.000788  -0.001227   0.030216
     8  O    0.000223  -0.057165   0.000880  -0.003845  -0.001418   0.023804
     9  O    0.005444  -0.005198  -0.001081  -0.026185  -0.003595   0.049863
    10  O    0.017843  -0.033305  -0.012966  -0.009808  -0.002492   0.023552
    11  H   -0.005826  -0.006760   0.002163  -0.005462  -0.004760  -0.020328
    12  H    0.003000   0.005200   0.000271   0.001010  -0.000559  -0.013627
    13  H    0.003719  -0.018660   0.009435   0.007007  -0.009884  -0.026395
    14  H    0.001339   0.004872   0.000197  -0.000156  -0.000212  -0.013522
    15  H   -0.057430  -0.071793   0.031953   0.111062   0.010063  -0.026285
    16  H   -0.000388   0.003060  -0.000657   0.005221  -0.000291  -0.017136
    17  H    0.001146  -0.002664   0.040609   0.012299   0.011877   0.000859
    18  H    0.008197   0.002098  -0.003451  -0.000810  -0.000980  -0.006892
    19  H    0.060857   0.018793  -0.023674  -0.013974   0.175553  -0.002541
    20  H    0.042546   0.053210   0.078978  -0.021625  -0.042475  -0.000303
    21  Si  -0.306100  -0.003977   0.055896   0.012908   0.031629  -0.001539
    22  O   -0.010143  -0.000072   0.009525  -0.006485  -0.001381  -0.000310
    23  O    0.016701  -0.003747  -0.007270   0.024698   0.005928  -0.000341
    24  O    0.026423   0.000123   0.001069  -0.004135   0.000542   0.000643
    25  O    0.077269  -0.038553   0.020323  -0.016375   0.031375  -0.002914
    26  Ca  -0.003426   0.000043  -0.000894  -0.001236  -0.000481  -0.000453
    27  O    0.001252  -0.000000  -0.000006   0.000026   0.000001  -0.000037
    28  O   -0.000023  -0.000000   0.000071   0.000003  -0.000007   0.000041
    29  O   -0.002616   0.000002   0.000438  -0.000015   0.000024   0.000019
    30  O   -0.000053  -0.000000   0.000155  -0.000028  -0.000027   0.000026
    31  H    0.004338   0.000127  -0.000130  -0.000256  -0.000284   0.000072
    32  H   -0.000723  -0.000034   0.000031   0.000074   0.000191   0.000088
    33  H   -0.004631  -0.000094   0.000707   0.000172   0.000357   0.000233
    34  H    0.000175   0.000003  -0.000009   0.000011  -0.000008   0.000039
    35  H    0.024436   0.000110  -0.015323   0.000913  -0.001152  -0.000290
    36  H    0.000336  -0.000005   0.000197   0.000031   0.000063   0.000051
    37  H   -0.001219   0.000164  -0.000723  -0.000066   0.000105   0.000031
    38  H   -0.000269  -0.000003   0.000058   0.000075  -0.000012   0.000009
    39  H    0.045511   0.014068  -0.011101  -0.005259  -0.008387   0.001696
               7          8          9         10         11         12
     1  Si  -0.028584   0.000223   0.005444   0.017843  -0.005826   0.003000
     2  O   -0.045170  -0.057165  -0.005198  -0.033305  -0.006760   0.005200
     3  O    0.002466   0.000880  -0.001081  -0.012966   0.002163   0.000271
     4  O   -0.000788  -0.003845  -0.026185  -0.009808  -0.005462   0.001010
     5  O   -0.001227  -0.001418  -0.003595  -0.002492  -0.004760  -0.000559
     6  Ca   0.030216   0.023804   0.049863   0.023552  -0.020328  -0.013627
     7  O    7.976189   0.002333  -0.002466   0.006666  -0.009494  -0.000613
     8  O    0.002333   7.991021   0.016152  -0.001054   0.287872   0.313314
     9  O   -0.002466   0.016152   8.833057  -0.005038  -0.010422   0.004957
    10  O    0.006666  -0.001054  -0.005038   8.088308  -0.000661  -0.000044
    11  H   -0.009494   0.287872  -0.010422  -0.000661   0.446159  -0.018204
    12  H   -0.000613   0.313314   0.004957  -0.000044  -0.018204   0.418854
    13  H    0.286909  -0.009958   0.002059  -0.004930   0.010386   0.002430
    14  H    0.312630  -0.000743  -0.000285   0.008393   0.002710   0.000026
    15  H    0.000001   0.004846  -0.018298   0.002442   0.008289  -0.004588
    16  H    0.000300   0.001585   0.233722  -0.000156  -0.001948   0.001307
    17  H   -0.000563  -0.001899  -0.005853   0.234440   0.003812  -0.000210
    18  H    0.002773   0.000182   0.002696   0.302237  -0.000300   0.000015
    19  H   -0.000540  -0.000226  -0.000213   0.000248   0.002039   0.000262
    20  H    0.000661   0.000966  -0.000107  -0.000719  -0.004066   0.000184
    21  Si   0.000797   0.001316  -0.004855   0.000068  -0.004422   0.000201
    22  O    0.000000   0.000000  -0.000036   0.000005   0.000033   0.000004
    23  O   -0.000014   0.000037   0.002285  -0.000103   0.000157   0.000011
    24  O   -0.000009  -0.000002   0.000135   0.000163   0.000035  -0.000007
    25  O   -0.000335   0.000143  -0.000054   0.001334   0.001398  -0.000143
    26  Ca   0.000026  -0.000001   0.000001  -0.000006   0.000046   0.000065
    27  O    0.000000   0.000000  -0.000000   0.000000   0.000001  -0.000000
    28  O   -0.000000   0.000000  -0.000000   0.000000  -0.000001   0.000000
    29  O    0.000000   0.000000   0.000000   0.000005  -0.000007   0.000000
    30  O    0.000000  -0.000000  -0.000002   0.000004   0.000001  -0.000000
    31  H    0.000003  -0.000000   0.000012   0.000025  -0.000004  -0.000001
    32  H   -0.000001   0.000000  -0.000000  -0.000001   0.000001  -0.000000
    33  H   -0.000000  -0.000000   0.000003  -0.000001  -0.000010   0.000001
    34  H    0.000000   0.000000   0.000000   0.000000  -0.000000  -0.000000
    35  H   -0.000011  -0.000014  -0.000004   0.000541   0.000168  -0.000005
    36  H    0.000000   0.000000   0.000001  -0.000013   0.000001  -0.000000
    37  H    0.000001   0.000001   0.000035  -0.000130  -0.000029   0.000002
    38  H    0.000000  -0.000000  -0.000001   0.000008   0.000001  -0.000000
    39  H    0.000019  -0.000998  -0.002805  -0.001322   0.000470   0.000234
              13         14         15         16         17         18
     1  Si   0.003719   0.001339  -0.057430  -0.000388   0.001146   0.008197
     2  O   -0.018660   0.004872  -0.071793   0.003060  -0.002664   0.002098
     3  O    0.009435   0.000197   0.031953  -0.000657   0.040609  -0.003451
     4  O    0.007007  -0.000156   0.111062   0.005221   0.012299  -0.000810
     5  O   -0.009884  -0.000212   0.010063  -0.000291   0.011877  -0.000980
     6  Ca  -0.026395  -0.013522  -0.026285  -0.017136   0.000859  -0.006892
     7  O    0.286909   0.312630   0.000001   0.000300  -0.000563   0.002773
     8  O   -0.009958  -0.000743   0.004846   0.001585  -0.001899   0.000182
     9  O    0.002059  -0.000285  -0.018298   0.233722  -0.005853   0.002696
    10  O   -0.004930   0.008393   0.002442  -0.000156   0.234440   0.302237
    11  H    0.010386   0.002710   0.008289  -0.001948   0.003812  -0.000300
    12  H    0.002430   0.000026  -0.004588   0.001307  -0.000210   0.000015
    13  H    0.458551  -0.012967   0.006850  -0.000732   0.002515  -0.002785
    14  H   -0.012967   0.417657  -0.000346   0.000084  -0.007991   0.001763
    15  H    0.006850  -0.000346   0.567916  -0.003343  -0.001187  -0.001078
    16  H   -0.000732   0.000084  -0.003343   0.473886   0.000326   0.000550
    17  H    0.002515  -0.007991  -0.001187   0.000326   0.438989  -0.015417
    18  H   -0.002785   0.001763  -0.001078   0.000550  -0.015417   0.390411
    19  H    0.002949   0.000315  -0.007375   0.000256  -0.003942   0.000380
    20  H   -0.002384   0.002272  -0.014372   0.001215  -0.040983   0.001919
    21  Si  -0.001933   0.000160   0.059670   0.000665   0.010795  -0.002442
    22  O    0.000144  -0.000006   0.003331  -0.000021   0.001156  -0.000057
    23  O    0.000057  -0.000012  -0.016559   0.001040  -0.000482  -0.000029
    24  O   -0.000150   0.000008  -0.005085   0.000015  -0.002631   0.000135
    25  O    0.002763  -0.000240   0.034267  -0.000409   0.006144  -0.000106
    26  Ca   0.000188   0.000036   0.000114   0.000099  -0.000278  -0.000011
    27  O    0.000001  -0.000000   0.000041   0.000001  -0.000003   0.000001
    28  O    0.000002  -0.000000   0.000030  -0.000000   0.000036  -0.000001
    29  O   -0.000006   0.000001  -0.000001   0.000000  -0.000085   0.000008
    30  O    0.000001   0.000000   0.000249  -0.000008  -0.000111   0.000021
    31  H   -0.000019   0.000003  -0.000044  -0.000003  -0.000116   0.000006
    32  H    0.000001  -0.000000  -0.000003  -0.000000   0.000007  -0.000001
    33  H    0.000001  -0.000001   0.000383  -0.000018   0.000158  -0.000019
    34  H   -0.000000   0.000000   0.000016  -0.000000  -0.000005   0.000001
    35  H   -0.000032   0.000030  -0.001743  -0.000008  -0.002332   0.000049
    36  H   -0.000002  -0.000001  -0.000000   0.000000   0.000051   0.000007
    37  H   -0.000040  -0.000001  -0.000877   0.000055   0.000363   0.000022
    38  H   -0.000002   0.000000   0.000039  -0.000005   0.000010  -0.000006
    39  H   -0.000794   0.000022  -0.046223  -0.002459   0.000095   0.000490
              19         20         21         22         23         24
     1  Si   0.060857   0.042546  -0.306100  -0.010143   0.016701   0.026423
     2  O    0.018793   0.053210  -0.003977  -0.000072  -0.003747   0.000123
     3  O   -0.023674   0.078978   0.055896   0.009525  -0.007270   0.001069
     4  O   -0.013974  -0.021625   0.012908  -0.006485   0.024698  -0.004135
     5  O    0.175553  -0.042475   0.031629  -0.001381   0.005928   0.000542
     6  Ca  -0.002541  -0.000303  -0.001539  -0.000310  -0.000341   0.000643
     7  O   -0.000540   0.000661   0.000797   0.000000  -0.000014  -0.000009
     8  O   -0.000226   0.000966   0.001316   0.000000   0.000037  -0.000002
     9  O   -0.000213  -0.000107  -0.004855  -0.000036   0.002285   0.000135
    10  O    0.000248  -0.000719   0.000068   0.000005  -0.000103   0.000163
    11  H    0.002039  -0.004066  -0.004422   0.000033   0.000157   0.000035
    12  H    0.000262   0.000184   0.000201   0.000004   0.000011  -0.000007
    13  H    0.002949  -0.002384  -0.001933   0.000144   0.000057  -0.000150
    14  H    0.000315   0.002272   0.000160  -0.000006  -0.000012   0.000008
    15  H   -0.007375  -0.014372   0.059670   0.003331  -0.016559  -0.005085
    16  H    0.000256   0.001215   0.000665  -0.000021   0.001040   0.000015
    17  H   -0.003942  -0.040983   0.010795   0.001156  -0.000482  -0.002631
    18  H    0.000380   0.001919  -0.002442  -0.000057  -0.000029   0.000135
    19  H    0.475609   0.010342  -0.025871  -0.007475   0.003056   0.003569
    20  H    0.010342   0.618362   0.010729  -0.016043   0.002556  -0.004031
    21  Si  -0.025871   0.010729  12.602452   0.027060   0.122416  -0.055334
    22  O   -0.007475  -0.016043   0.027060   9.232434  -0.053963   0.037155
    23  O    0.003056   0.002556   0.122416  -0.053963   8.372496   0.010595
    24  O    0.003569  -0.004031  -0.055334   0.037155   0.010595   8.627808
    25  O   -0.014236  -0.072763   0.243413   0.018462  -0.080763   0.039522
    26  Ca   0.001799   0.003014  -0.000947   0.047768   0.001884  -0.032773
    27  O   -0.000118   0.000174  -0.007860  -0.041587   0.000092  -0.008176
    28  O   -0.000778  -0.001270  -0.009536  -0.031539  -0.000477  -0.001891
    29  O   -0.000184  -0.000342   0.014988  -0.008454  -0.001443  -0.062992
    30  O    0.000091  -0.000366   0.004399   0.023722  -0.007495   0.018778
    31  H   -0.003924   0.002015   0.028749  -0.030851  -0.002125   0.000565
    32  H    0.000180  -0.000005   0.003025  -0.000102   0.000893   0.000111
    33  H   -0.000024  -0.002360   0.008250  -0.027313  -0.014447   0.019386
    34  H   -0.000079   0.000097   0.001969   0.000400   0.000098  -0.000074
    35  H    0.002747   0.014175   0.022468  -0.057536   0.031994   0.167668
    36  H   -0.000156  -0.000287   0.000031  -0.000514  -0.000036   0.004235
    37  H   -0.000433   0.003159   0.036098  -0.043113  -0.008218  -0.017875
    38  H   -0.000014  -0.000362   0.010783  -0.006410  -0.002187  -0.013421
    39  H    0.004206   0.005133  -0.076479  -0.005552   0.284979   0.023029
              25         26         27         28         29         30
     1  Si   0.077269  -0.003426   0.001252  -0.000023  -0.002616  -0.000053
     2  O   -0.038553   0.000043  -0.000000  -0.000000   0.000002  -0.000000
     3  O    0.020323  -0.000894  -0.000006   0.000071   0.000438   0.000155
     4  O   -0.016375  -0.001236   0.000026   0.000003  -0.000015  -0.000028
     5  O    0.031375  -0.000481   0.000001  -0.000007   0.000024  -0.000027
     6  Ca  -0.002914  -0.000453  -0.000037   0.000041   0.000019   0.000026
     7  O   -0.000335   0.000026   0.000000  -0.000000   0.000000   0.000000
     8  O    0.000143  -0.000001   0.000000   0.000000   0.000000  -0.000000
     9  O   -0.000054   0.000001  -0.000000  -0.000000   0.000000  -0.000002
    10  O    0.001334  -0.000006   0.000000   0.000000   0.000005   0.000004
    11  H    0.001398   0.000046   0.000001  -0.000001  -0.000007   0.000001
    12  H   -0.000143   0.000065  -0.000000   0.000000   0.000000  -0.000000
    13  H    0.002763   0.000188   0.000001   0.000002  -0.000006   0.000001
    14  H   -0.000240   0.000036  -0.000000  -0.000000   0.000001   0.000000
    15  H    0.034267   0.000114   0.000041   0.000030  -0.000001   0.000249
    16  H   -0.000409   0.000099   0.000001  -0.000000   0.000000  -0.000008
    17  H    0.006144  -0.000278  -0.000003   0.000036  -0.000085  -0.000111
    18  H   -0.000106  -0.000011   0.000001  -0.000001   0.000008   0.000021
    19  H   -0.014236   0.001799  -0.000118  -0.000778  -0.000184   0.000091
    20  H   -0.072763   0.003014   0.000174  -0.001270  -0.000342  -0.000366
    21  Si   0.243413  -0.000947  -0.007860  -0.009536   0.014988   0.004399
    22  O    0.018462   0.047768  -0.041587  -0.031539  -0.008454   0.023722
    23  O   -0.080763   0.001884   0.000092  -0.000477  -0.001443  -0.007495
    24  O    0.039522  -0.032773  -0.008176  -0.001891  -0.062992   0.018778
    25  O    8.933826  -0.012356  -0.000354   0.002149  -0.003824   0.000440
    26  Ca  -0.012356  18.493996   0.028083   0.027420   0.048037   0.005441
    27  O   -0.000354   0.028083   8.040038  -0.000934  -0.003421   0.033159
    28  O    0.002149   0.027420  -0.000934   7.975557   0.012596  -0.002554
    29  O   -0.003824   0.048037  -0.003421   0.012596   8.827419  -0.005098
    30  O    0.000440   0.005441   0.033159  -0.002554  -0.005098   8.004529
    31  H   -0.009484  -0.009513   0.000589   0.283983  -0.017536   0.002912
    32  H   -0.001348  -0.014379  -0.001343   0.323108   0.002166  -0.000299
    33  H    0.004310  -0.022554   0.263660  -0.002104   0.004148  -0.019276
    34  H    0.000180  -0.014660   0.303558  -0.000834  -0.000254   0.002927
    35  H   -0.033907  -0.006553   0.004099  -0.005369   0.009496  -0.006539
    36  H    0.000396  -0.017188   0.000138  -0.000953   0.248978  -0.002707
    37  H    0.007160  -0.008916  -0.006410   0.000960   0.005050   0.212613
    38  H    0.000249  -0.012321  -0.002633   0.000159  -0.001173   0.305698
    39  H   -0.033041  -0.000813  -0.001203   0.000043   0.000284   0.000388
              31         32         33         34         35         36
     1  Si   0.004338  -0.000723  -0.004631   0.000175   0.024436   0.000336
     2  O    0.000127  -0.000034  -0.000094   0.000003   0.000110  -0.000005
     3  O   -0.000130   0.000031   0.000707  -0.000009  -0.015323   0.000197
     4  O   -0.000256   0.000074   0.000172   0.000011   0.000913   0.000031
     5  O   -0.000284   0.000191   0.000357  -0.000008  -0.001152   0.000063
     6  Ca   0.000072   0.000088   0.000233   0.000039  -0.000290   0.000051
     7  O    0.000003  -0.000001  -0.000000   0.000000  -0.000011   0.000000
     8  O   -0.000000   0.000000  -0.000000   0.000000  -0.000014   0.000000
     9  O    0.000012  -0.000000   0.000003   0.000000  -0.000004   0.000001
    10  O    0.000025  -0.000001  -0.000001   0.000000   0.000541  -0.000013
    11  H   -0.000004   0.000001  -0.000010  -0.000000   0.000168   0.000001
    12  H   -0.000001  -0.000000   0.000001  -0.000000  -0.000005  -0.000000
    13  H   -0.000019   0.000001   0.000001  -0.000000  -0.000032  -0.000002
    14  H    0.000003  -0.000000  -0.000001   0.000000   0.000030  -0.000001
    15  H   -0.000044  -0.000003   0.000383   0.000016  -0.001743  -0.000000
    16  H   -0.000003  -0.000000  -0.000018  -0.000000  -0.000008   0.000000
    17  H   -0.000116   0.000007   0.000158  -0.000005  -0.002332   0.000051
    18  H    0.000006  -0.000001  -0.000019   0.000001   0.000049   0.000007
    19  H   -0.003924   0.000180  -0.000024  -0.000079   0.002747  -0.000156
    20  H    0.002015  -0.000005  -0.002360   0.000097   0.014175  -0.000287
    21  Si   0.028749   0.003025   0.008250   0.001969   0.022468   0.000031
    22  O   -0.030851  -0.000102  -0.027313   0.000400  -0.057536  -0.000514
    23  O   -0.002125   0.000893  -0.014447   0.000098   0.031994  -0.000036
    24  O    0.000565   0.000111   0.019386  -0.000074   0.167668   0.004235
    25  O   -0.009484  -0.001348   0.004310   0.000180  -0.033907   0.000396
    26  Ca  -0.009513  -0.014379  -0.022554  -0.014660  -0.006553  -0.017188
    27  O    0.000589  -0.001343   0.263660   0.303558   0.004099   0.000138
    28  O    0.283983   0.323108  -0.002104  -0.000834  -0.005369  -0.000953
    29  O   -0.017536   0.002166   0.004148  -0.000254   0.009496   0.248978
    30  O    0.002912  -0.000299  -0.019276   0.002927  -0.006539  -0.002707
    31  H    0.446433  -0.015355  -0.012066   0.003311   0.008916   0.002006
    32  H   -0.015355   0.401249   0.003544   0.000014   0.000864   0.000243
    33  H   -0.012066   0.003544   0.473444  -0.007384  -0.006592  -0.000450
    34  H    0.003311   0.000014  -0.007384   0.411424   0.000038   0.000066
    35  H    0.008916   0.000864  -0.006592   0.000038   0.553744  -0.001996
    36  H    0.002006   0.000243  -0.000450   0.000066  -0.001996   0.448262
    37  H   -0.001206   0.000178   0.003033   0.001233  -0.007737   0.003901
    38  H   -0.000466   0.000031   0.003307  -0.002514   0.005214  -0.000114
    39  H    0.000759   0.000030   0.001747  -0.000212   0.002860  -0.000051
              37         38         39
     1  Si  -0.001219  -0.000269   0.045511
     2  O    0.000164  -0.000003   0.014068
     3  O   -0.000723   0.000058  -0.011101
     4  O   -0.000066   0.000075  -0.005259
     5  O    0.000105  -0.000012  -0.008387
     6  Ca   0.000031   0.000009   0.001696
     7  O    0.000001   0.000000   0.000019
     8  O    0.000001  -0.000000  -0.000998
     9  O    0.000035  -0.000001  -0.002805
    10  O   -0.000130   0.000008  -0.001322
    11  H   -0.000029   0.000001   0.000470
    12  H    0.000002  -0.000000   0.000234
    13  H   -0.000040  -0.000002  -0.000794
    14  H   -0.000001   0.000000   0.000022
    15  H   -0.000877   0.000039  -0.046223
    16  H    0.000055  -0.000005  -0.002459
    17  H    0.000363   0.000010   0.000095
    18  H    0.000022  -0.000006   0.000490
    19  H   -0.000433  -0.000014   0.004206
    20  H    0.003159  -0.000362   0.005133
    21  Si   0.036098   0.010783  -0.076479
    22  O   -0.043113  -0.006410  -0.005552
    23  O   -0.008218  -0.002187   0.284979
    24  O   -0.017875  -0.013421   0.023029
    25  O    0.007160   0.000249  -0.033041
    26  Ca  -0.008916  -0.012321  -0.000813
    27  O   -0.006410  -0.002633  -0.001203
    28  O    0.000960   0.000159   0.000043
    29  O    0.005050  -0.001173   0.000284
    30  O    0.212613   0.305698   0.000388
    31  H   -0.001206  -0.000466   0.000759
    32  H    0.000178   0.000031   0.000030
    33  H    0.003033   0.003307   0.001747
    34  H    0.001233  -0.002514  -0.000212
    35  H   -0.007737   0.005214   0.002860
    36  H    0.003901  -0.000114  -0.000051
    37  H    0.514544   0.004479   0.002199
    38  H    0.004479   0.403559   0.000379
    39  H    0.002199   0.000379   0.458487
 Mulliken charges:
               1
     1  Si   1.114103
     2  O   -0.920576
     3  O   -0.723516
     4  O   -0.819745
     5  O   -0.710680
     6  Ca   1.452840
     7  O   -0.532175
     8  O   -0.567353
     9  O   -1.063923
    10  O   -0.613532
    11  H    0.326963
    12  H    0.286654
    13  H    0.295705
    14  H    0.283966
    15  H    0.435071
    16  H    0.304196
    17  H    0.321063
    18  H    0.320423
    19  H    0.342528
    20  H    0.373158
    21  Si   1.190361
    22  O   -1.052237
    23  O   -0.682258
    24  O   -0.773129
    25  O   -1.103917
    26  Ca   1.501699
    27  O   -0.600827
    28  O   -0.567885
    29  O   -1.066206
    30  O   -0.570993
    31  H    0.318559
    32  H    0.297564
    33  H    0.332502
    34  H    0.300471
    35  H    0.296613
    36  H    0.315477
    37  H    0.301611
    38  H    0.307855
    39  H    0.349571
 Sum of Mulliken charges =  -1.00000
 Mulliken charges with hydrogens summed into heavy atoms:
               1
     1  Si   1.114103
     2  O   -0.920576
     3  O   -0.350359
     4  O   -0.384674
     5  O   -0.368152
     6  Ca   1.452840
     7  O    0.047496
     8  O    0.046265
     9  O   -0.759727
    10  O    0.027954
    21  Si   1.190361
    22  O   -1.052237
    23  O   -0.332687
    24  O   -0.476516
    25  O   -1.103917
    26  Ca   1.501699
    27  O    0.032146
    28  O    0.048238
    29  O   -0.750730
    30  O    0.038474
 Electronic spatial extent (au):  <R**2>=          13244.3771
 Charge=             -1.0000 electrons
 Dipole moment (field-independent basis, Debye):
    X=              1.9669    Y=              5.2195    Z=             -6.8963  Tot=              8.8696
 Quadrupole moment (field-independent basis, Debye-Ang):
   XX=            -96.1067   YY=           -146.3253   ZZ=           -164.5823
   XY=            -34.1671   XZ=             12.9446   YZ=             -4.7561
 Traceless Quadrupole moment (field-independent basis, Debye-Ang):
   XX=             39.5647   YY=            -10.6539   ZZ=            -28.9108
   XY=            -34.1671   XZ=             12.9446   YZ=             -4.7561
 Octapole moment (field-independent basis, Debye-Ang**2):
  XXX=            179.3072  YYY=           -143.1811  ZZZ=            278.6824  XYY=            -58.8695
  XXY=            141.3933  XXZ=           -116.7598  XZZ=           -180.6730  YZZ=            -28.1578
  YYZ=             38.0568  XYZ=             78.2759
 Hexadecapole moment (field-independent basis, Debye-Ang**3):
 XXXX=          -8978.0107 YYYY=          -1534.8599 ZZZZ=          -1814.9129 XXXY=           -126.8717
 XXXZ=            -89.8794 YYYX=            439.6933 YYYZ=             33.7106 ZZZX=            575.6719
 ZZZY=             75.2131 XXYY=          -1751.3802 XXZZ=          -2409.2108 YYZZ=           -510.0861
 XXYZ=             38.7661 YYXZ=            166.2274 ZZXY=             35.8035
 N-N= 2.874260339288D+03 E-N=-1.325257323178D+04  KE= 3.143562341582D+03
 D1PCM: C-PCM CHGder 1st derivatives, ID1Alg=3 FixD1E=F DoIter=F DoCFld=F I1PDM=0.
 Calling FoFJK, ICntrl=      2127 FMM=F ISym2X=0 I1Cent= 0 IOpClX= 0 NMat=1 NMatS=1 NMatT=0.
 -------------------------------------------------------------------
 Center     Atomic                   Forces (Hartrees/Bohr)
 Number     Number              X              Y              Z
 -------------------------------------------------------------------
      1       14          -0.004161340    0.000272674    0.000604132
      2        8          -0.001845402   -0.000254140    0.000337787
      3        8           0.000568705   -0.000008385    0.001212816
      4        8          -0.000696391   -0.000412245    0.000064221
      5        8           0.001079066    0.000724050   -0.000480386
      6       20          -0.001363837    0.000643398   -0.000384608
      7        8          -0.000963549    0.000152528   -0.000639276
      8        8          -0.001132659    0.000745679    0.000385402
      9        8           0.000224554   -0.000404300   -0.000082068
     10        8           0.000137697   -0.000148180    0.000211074
     11        1          -0.000097230    0.000016957    0.000038345
     12        1          -0.000056112    0.000039534    0.000020786
     13        1          -0.000099584   -0.000047859   -0.000027736
     14        1          -0.000037151    0.000004936   -0.000022083
     15        1           0.000028925   -0.000005475   -0.000002269
     16        1           0.000002443   -0.000030529   -0.000028767
     17        1           0.000030686    0.000005211    0.000001357
     18        1          -0.000017007   -0.000005854    0.000011191
     19        1          -0.000173892    0.000156442   -0.000133506
     20        1          -0.000245769   -0.000002953    0.000186182
     21       14           0.001699519   -0.000480252   -0.000166226
     22        8           0.001239108    0.000810340    0.000030585
     23        8          -0.000258354   -0.000727367    0.000161910
     24        8           0.000743628    0.000441223   -0.000015262
     25        8           0.002700142   -0.001947086   -0.000792013
     26       20           0.000855585    0.000061202   -0.000296647
     27        8           0.000910751    0.000275685    0.000033142
     28        8           0.000031820    0.000063599   -0.000006364
     29        8           0.000212779   -0.000079592   -0.000020084
     30        8           0.000466622    0.000101084   -0.000175587
     31        1           0.000037743    0.000011962    0.000008636
[...]
 -0.00045676,0.00001165,0.00026051,0.00005204,-0.00002725,0.00001753,-0
 .00003267,-0.00001202,-0.00001747,-0.00002848,0.00001877,0.00001775,-0
 .00006956,0.00007117,-0.00003959,-0.00005965,0.00003462,-0.00005283,0.
 00003461,-0.00002231,-0.00002951,-0.00000071,-0.00000009,-0.00000195,0
 .00004107,0.00002157,0.00002123,0.00000020,0.00000305,0.00000093,0.000
 06546,-0.00015126,0.00007201,-0.00000512,0.00000550,-0.00000313,0.0000
 9232,-0.00004690,0.00008741,-0.00000186,-0.00000023,0.00000296,0.00051
 796,0.00001984,-0.00048521,0.00071787,-0.00002566,0.00030409,-0.003444
 64,0.01149977,-0.00653570,0.00269137,-0.00307067,0.00206810,-0.0018125
 3,0.00229278,0.00520638,0.13522324,-0.17558850,-0.11021199,-0.00189832
 ,-0.00381809,0.00179235,0.00085276,0.00300035,0.00359424,0.00029461,0.
 00000103,0.00006655,0.00031754,-0.00018828,-0.00039049,-0.01591053,-0.
 00067936,0.00006721,0.00295043,0.00221449,0.00143309,-0.00047192,0.000
 58102,0.00027549,0.00001541,-0.00009041,0.00001092,-0.00038570,-0.0002
 0761,-0.00034398,0.00002739,0.00001506,-0.00008557,-0.11500615,0.17428
 368,0.00053591,-0.00028744,-0.00014466,-0.00021484,0.00004394,0.000030
 92,-0.00075485,0.00020598,-0.00015216,-0.00015768,0.00019408,0.0000436
 0,-0.00077133,0.00008953,0.00042519,0.00004728,-0.00003507,0.00001361,
 -0.00003177,-0.00001113,-0.00001757,-0.00002808,0.00002122,0.00001698,
 -0.00004434,0.00005117,-0.00002144,-0.00007639,0.00005008,-0.00006543,
 0.00003430,-0.00002457,-0.00003046,-0.00000136,-0.00000065,-0.00000125
 ,0.00003869,0.00002228,0.00001988,0.00000106,0.00000287,0.00000162,0.0
 0005874,-0.00008736,0.00003976,-0.00000136,0.00000358,-0.00000146,0.00
 009463,-0.00006276,0.00011123,-0.00000476,-0.00000013,0.00000330,0.000
 78140,0.00010569,-0.00067015,0.00094688,-0.00011210,0.00038184,0.01641
 023,-0.00625283,-0.02647612,0.00243032,-0.00153973,0.00585107,0.000650
 86,0.00063758,0.00036879,0.10106862,-0.10047903,-0.11641422,-0.0036591
 9,-0.00207182,0.00238075,-0.00519641,0.00213857,0.00128927,0.00105507,
 0.00036309,0.00044674,0.00065019,-0.00079523,-0.00021861,-0.01248429,0
 .00418539,-0.01042392,0.00286568,0.00183886,0.00060062,-0.00076511,0.0
 0137775,0.00001075,0.00004014,-0.00002863,0.00004394,-0.00124088,-0.00
 071040,-0.00083138,0.00005040,-0.00001400,-0.00006061,-0.10059226,0.10
 790032,0.14605119,0.00003542,-0.00000038,0.00000127,-0.00001458,-0.000
 00108,-0.00000081,-0.00003980,0.00000756,-0.00001472,-0.00003232,0.000
 00876,0.00000023,-0.00004288,0.00000272,0.00002302,0.00000229,-0.00000
 116,0.00000225,-0.00000175,-0.00000080,-0.00000157,-0.00000121,0.00000
 112,0.00000062,-0.00000436,0.00000453,-0.00000339,-0.00000305,0.000001
 80,-0.00000489,0.00000175,-0.00000112,-0.00000158,-0.00000021,0.,0.000
 00013,0.00000255,0.00000153,0.00000154,-0.00000034,0.00000014,0.000000
 14,0.00000448,-0.00001062,0.00000372,-0.00000059,0.00000067,0.00000008
 ,0.00000483,-0.00000315,0.00000687,-0.00000090,0.00000050,0.00000027,0
 .00004502,0.00000258,-0.00004122,0.00005935,-0.00000403,0.00002647,0.0
 0038862,0.00052213,-0.00123706,0.00038672,-0.00006421,0.00051383,-0.00
 010289,0.00008066,0.00031167,-0.00467940,0.00267356,0.00175949,-0.0001
 8378,-0.00024417,0.00014317,-0.00231256,-0.00133709,-0.00317103,0.0000
 6965,-0.00013981,-0.00024841,0.00005447,0.00009216,-0.00001552,-0.0038
 5714,-0.01942048,-0.01985529,0.00015216,-0.00014430,-0.00009386,-0.000
 09946,0.00006606,0.00001413,0.00002205,0.00000028,-0.00003697,-0.00018
 370,-0.00005133,0.00001535,0.00004256,0.00000856,-0.00003961,0.0049198
 0,-0.00005567,0.00182392,0.00556107,-0.00002612,0.00000256,0.00000253,
 0.00001137,-0.00000061,-0.00000068,0.00002674,-0.00000262,0.00000819,0
 .00002124,-0.00000795,-0.00000044,0.00002891,-0.00000464,-0.00001398,-
 0.00000204,0.00000207,-0.00000179,0.00000168,0.00000015,0.00000107,0.0
 0000166,-0.00000143,-0.00000047,0.00000297,-0.00000383,0.00000260,0.00
 000320,-0.00000237,0.00000350,-0.00000152,0.00000149,0.00000128,-0.000
 00014,0.00000006,0.00000005,-0.00000231,-0.00000082,-0.00000091,0.,0.0
 0000006,-0.00000013,-0.00000377,0.00000758,-0.00000435,0.00000033,-0.0
 0000040,-0.00000007,-0.00000484,0.00000320,-0.00000555,0.00000027,-0.0
 0000001,-0.00000042,-0.00003130,-0.00000284,0.00002849,-0.00003877,-0.
 00000361,-0.00001736,0.00001553,-0.00047150,0.00081665,-0.00016102,0.0
 0025409,0.00007433,0.00005233,-0.00004948,-0.00020016,0.00162082,0.000
 17691,-0.00072467,0.00010066,0.00016308,-0.00013683,0.00233468,-0.0003
 0692,0.00314140,-0.00002323,0.00003510,0.00004810,0.00000968,-0.000007
 88,-0.00003210,-0.01993944,-0.29230098,-0.28548687,-0.00020376,-0.0006
 6134,-0.00058690,0.00002164,0.00001938,-0.00004965,-0.00001518,-0.0000
 0279,-0.00000682,-0.00000268,-0.00000850,0.00001914,-0.00000700,-0.000
 00320,0.00002080,-0.00205132,-0.00146699,-0.00094075,0.01844095,0.2941
 1452,-0.00002336,0.00000177,0.00000528,0.00001012,0.00000069,-0.000000
 97,0.00003522,-0.00001212,0.00000827,0.00002170,-0.00000560,-0.0000015
 3,0.00002659,0.00000122,-0.00002087,-0.00000253,0.00000091,0.00000004,
 0.00000130,0.00000078,0.00000071,0.00000111,-0.00000077,-0.00000102,0.
 00000330,-0.00000316,0.00000125,0.00000293,-0.00000182,0.00000209,-0.0
 0000145,0.00000092,0.00000147,0.00000013,-0.00000006,0.00000007,-0.000
 00151,-0.00000112,-0.00000099,0.00000017,-0.00000025,0.00000005,-0.000
 00280,0.00000654,-0.00000172,0.00000017,-0.00000035,0.00000012,-0.0000
 0250,0.00000271,-0.00000405,0.00000017,-0.00000010,0.00000016,-0.00002
 717,-0.00000361,0.00002883,-0.00004117,0.00001391,-0.00001636,-0.00084
 992,0.00004108,0.00022325,0.00040923,-0.00000203,-0.00062989,0.0001275
 9,-0.00008201,-0.00003651,-0.00002976,0.00010765,0.00080208,0.00016518
 ,0.00008390,0.00002985,-0.00045920,-0.00182385,-0.00221152,-0.00008353
 ,-0.00013326,-0.00022892,-0.00002547,0.00017586,0.00021508,-0.01979407
 ,-0.28192129,-0.27279229,-0.00003588,0.00003280,0.00025835,0.00006697,
 -0.00024840,0.00004873,0.00002431,0.00005737,-0.00002979,0.00009465,0.
 00006820,0.00012110,0.00002032,0.00001605,-0.00002064,0.00009556,-0.00
 037867,-0.00156527,0.02021188,0.28377619,0.27584775,-0.00063211,0.0001
 3942,0.00009094,0.00027157,-0.00001320,-0.00002426,0.00069357,-0.00015
 906,0.00016379,0.00046986,-0.00019659,-0.00001830,0.00080893,-0.000072
 77,-0.00044525,-0.00006272,0.00004109,-0.00001783,0.00004042,0.0000133
 8,0.00002243,0.00003531,-0.00002606,-0.00002314,0.00007626,-0.00008531
 ,0.00004030,0.00008079,-0.00004928,0.00006683,-0.00004305,0.00002840,0
 .00003936,0.00000108,0.00000086,0.00000213,-0.00004928,-0.00002698,-0.
 00002579,-0.00000162,-0.00000320,-0.00000145,-0.00008119,0.00016488,-0
 .00007325,0.00000483,-0.00000540,0.00000296,-0.00010712,0.00005825,-0.
 00011197,0.00000323,0.00000249,-0.00000297,-0.00086294,-0.00006915,0.0
 0073228,-0.00092176,0.00010669,-0.00037009,-0.00419391,-0.00837301,0.0
 1856295,-0.00410218,0.00123482,-0.00314861,0.00198049,-0.00101692,-0.0
 0304896,0.00842448,0.01830223,-0.00321632,0.00325968,0.00328335,-0.003
 21087,-0.00205507,0.00764164,-0.00167292,-0.00031403,-0.00059261,0.000
 88237,-0.00041927,0.00013346,0.00017134,-0.00376321,0.00046625,-0.0002
 3999,-0.38736412,-0.08637958,-0.07224849,0.00043603,-0.00061335,-0.000
 09073,-0.00004198,0.00000301,0.00003471,0.00093566,0.00067669,-0.00012
 204,-0.00017215,-0.00000190,-0.00048779,0.00552858,-0.00494858,-0.0040
 1821,-0.00036233,-0.00022010,0.00009347,0.37822340,-0.00050419,0.00010
 668,0.00008687,0.00020855,-0.00001275,-0.00002195,0.00060624,-0.000126
 88,0.00011826,0.00037146,-0.00016041,-0.00001332,0.00061750,-0.0000529
 3,-0.00033055,-0.00004619,0.00003564,-0.00001432,0.00003108,0.00001034
 ,0.00001675,0.00002995,-0.00002081,-0.00001709,0.00005421,-0.00006635,
 0.00002914,0.00006822,-0.00004540,0.00005365,-0.00003535,0.00002211,0.
 00002958,0.00000044,0.00000074,0.00000144,-0.00003888,-0.00002096,-0.0
 0001970,-0.00000042,-0.00000246,-0.00000108,-0.00006278,0.00013139,-0.
 00005691,0.00000587,-0.00000479,0.00000356,-0.00008958,0.00005873,-0.0
 0009034,0.00000212,0.00000266,-0.00000212,-0.00064974,-0.00005579,0.00
 058042,-0.00079473,0.00009688,-0.00032236,-0.00763119,-0.00589805,0.01
 295777,-0.00087968,0.00317868,-0.00459336,0.00169178,-0.00124483,-0.00
 197147,0.01552494,0.00429600,-0.00167924,0.00278329,0.00246799,-0.0020
 6700,0.00749935,-0.00222380,0.00235622,-0.00075753,-0.00058012,-0.0000
 7635,-0.00060185,0.00079464,0.00005954,-0.00200750,0.00284271,0.001949
 09,-0.04860715,-0.05202543,-0.03082092,0.00064895,-0.00120672,0.000021
 02,-0.00005043,-0.00000840,-0.00000753,0.00104062,0.00060044,0.0007275
 9,-0.00005946,0.00002483,-0.00017795,-0.00296048,-0.00861330,-0.005566
 29,-0.00040203,0.00059199,0.00016459,0.06662444,0.06502708,-0.00003283
 ,0.00010323,0.00001514,-0.00001017,-0.00002021,0.00000253,0.00003818,-
 0.00001621,-0.00000419,-0.00012343,-0.00002042,-0.00002288,0.00013433,
 -0.00004789,-0.00005671,-0.00000133,0.00000479,0.00000343,-0.00000025,
 0.,-0.00000207,-0.00000183,-0.00000133,-0.00000266,-0.00001025,0.00000
 768,-0.00000591,0.00000370,-0.00000644,-0.00000140,0.00000023,0.000003
 53,0.00000208,0.00000178,-0.00000042,0.00000054,-0.00000096,0.00000002
 ,0.00000158,0.00000002,-0.00000067,0.00000039,0.00000604,-0.00002193,0
 .00001654,-0.00000104,0.00000039,-0.00000183,-0.00000826,0.00000461,-0
 .00000518,-0.00000006,0.00000194,0.00000107,-0.00015339,0.00000466,0.0
 0012854,-0.00008711,0.00000608,-0.00004437,0.00526805,0.00333820,0.003
 82122,-0.00163343,-0.00273609,0.00102960,-0.00100816,-0.00009159,0.000
 01815,0.00344471,0.00251908,-0.01232680,0.00040348,0.00058819,-0.00126
 136,-0.00258478,0.00400061,0.00098521,0.00040202,0.00012681,0.00042432
 ,0.00033200,-0.00047520,-0.00001085,-0.00056050,0.00106880,-0.00013331
 ,-0.03989046,-0.03273292,-0.03948202,-0.00039108,0.00057406,0.00003293
 ,0.00000840,0.00000344,0.00002329,-0.00027054,-0.00007039,-0.00070042,
 -0.00003712,-0.00007497,-0.00004706,-0.00212497,-0.00439770,-0.0002626
 5,-0.00008331,0.00026517,-0.00011502,0.06794883,0.03503968,0.05456120,
 0.00000331,-0.00002318,-0.00000708,0.00000382,0.00000451,0.00000041,-0
 .00001146,0.00000424,0.,0.00003143,0.00000677,0.00000238,-0.00002539,0
 .00001174,0.00000962,-0.00000237,-0.00000172,-0.00000037,0.00000117,0.
 00000047,0.00000053,0.00000120,0.00000033,-0.00000036,0.00000553,-0.00
 000164,0.00000066,0.00000035,0.00000113,0.00000043,-0.00000111,-0.0000
 0072,0.00000036,-0.00000041,0.,0.00000014,-0.00000104,-0.00000028,-0.0
 0000009,-0.00000011,-0.00000008,-0.00000010,-0.00000201,0.00000479,-0.
 00000248,-0.00000089,0.00000026,0.00000042,0.00000293,-0.00000070,0.00
 000149,-0.00000062,-0.00000055,-0.00000052,0.00002544,-0.00000193,-0.0
 0002446,0.00002444,-0.00000273,0.00001216,-0.00032178,-0.00020988,-0.0
 0085490,0.00016635,0.00018547,-0.00005178,0.00019555,0.00009090,0.0000
 4042,-0.00313019,-0.00128978,0.00081306,-0.00010889,-0.00011631,0.0002
 1633,0.00009884,-0.00036655,0.00133688,-0.00009756,-0.00042613,0.00030
 183,-0.00000399,0.00013470,-0.00005085,0.00024497,0.00041055,0.0002713
 8,-0.04417549,0.02895799,0.02147536,0.00001335,-0.00004137,0.00001804,
 0.00000904,-0.00000766,-0.00001683,0.00023700,0.00014417,0.00005228,-0
 .00005010,0.00016645,-0.00069907,0.00007842,0.00059768,0.00028538,0.00
 011559,0.00007399,0.00000004,0.00500261,-0.03108527,-0.02912187,0.0417
 0228,-0.00005995,-0.00000254,0.00000950,0.00002582,0.00000135,-0.00000
 227,0.00007581,-0.00001882,0.00001665,0.00006827,-0.00001844,-0.000000
 90,0.00005398,0.00000138,-0.00003090,-0.00000641,0.00000512,-0.0000023
 1,0.00000406,0.00000106,0.00000231,0.00000385,-0.00000257,-0.00000217,
 0.00000833,-0.00001095,0.00000546,0.00000781,-0.00000617,0.00000660,-0
 .00000470,0.00000313,0.00000378,0.00000004,0.00000021,0.00000021,-0.00
 000497,-0.00000247,-0.00000320,-0.00000007,-0.00000019,-0.00000022,-0.
 00000892,0.00002157,-0.00000910,0.00000111,-0.00000079,0.00000043,-0.0
 0001025,0.00000692,-0.00001108,0.00000040,0.00000063,-0.00000015,-0.00
 005815,-0.00000783,0.00004863,-0.00008441,0.00001713,-0.00003623,-0.00
 138698,-0.00048847,-0.00003608,0.00077755,0.00126730,-0.00020438,0.000
 43827,-0.00012241,-0.00015495,0.00008571,0.00084242,0.00045442,0.00036
 845,0.00015374,0.00003879,0.00076953,-0.00376748,-0.00206655,-0.000341
 56,0.00087074,-0.00152953,-0.00019009,0.00022962,0.00004056,-0.0000825
 4,-0.00002550,-0.00001669,-0.00705722,-0.29906493,-0.26626226,0.000192
 68,-0.00035469,-0.00000487,-0.00000708,-0.00000093,-0.00000539,-0.0004
 6968,-0.00055753,0.00069862,0.00027323,-0.00017499,0.00115039,0.000301
 61,-0.00012818,-0.00007077,-0.00002255,-0.00006988,0.00006723,0.003675
 38,-0.00804508,-0.00686963,0.00275657,0.30940593,0.00000520,0.00000159
 ,0.00000443,-0.00000187,-0.00000033,-0.00000120,-0.00000916,0.00000355
 ,-0.00000447,-0.00000852,-0.00000005,-0.00000225,-0.00000342,-0.000000
 47,0.00000056,0.00000020,-0.00000051,0.00000158,-0.00000040,-0.0000000
 3,-0.00000045,-0.00000030,-0.00000010,-0.00000001,-0.00000081,0.000001
 12,-0.00000238,-0.00000037,0.00000132,-0.00000129,0.00000053,-0.000000
 10,-0.00000041,0.00000004,-0.00000003,0.00000006,0.00000072,0.00000009
 ,0.00000057,-0.00000020,-0.00000009,0.00000019,0.00000109,-0.00000263,
 0.00000226,-0.00000024,0.00000038,0.00000048,-0.00000018,-0.00000175,0
 .00000124,-0.00000049,-0.00000004,0.00000013,0.00000168,0.00000042,-0.
 00000123,0.00000700,-0.00000333,0.00000336,-0.00004818,-0.00018300,0.0
 0031412,-0.00022419,-0.00024946,-0.00041012,-0.00001580,0.00000503,-0.
 00005822,0.00068960,0.00046071,0.00040470,-0.00003190,0.00000302,-0.00
 004135,-0.00017047,0.00128285,0.00086257,0.00003662,-0.00085500,0.0007
 9224,0.00006367,0.00002203,-0.00005624,-0.00002688,-0.00002392,0.00013
 111,-0.01014125,-0.27010632,-0.24726600,-0.00005112,0.00006805,0.00002
 484,0.00000273,-0.00000452,-0.00000515,0.00057833,0.00053789,-0.000258
 06,-0.00056348,0.00055124,-0.00186221,-0.00001778,-0.00003750,-0.00017
 374,-0.00000801,-0.00000328,0.00008493,0.00391617,-0.00625456,-0.00668
 437,0.00600979,0.27479315,0.25420471,-0.00698637,-0.01759966,-0.003798
 34,0.00475842,0.00315975,0.00071356,-0.00096679,0.00283960,0.00276733,
 0.01018880,0.00193470,0.00201604,-0.00154019,0.00336926,-0.00035022,-0
 .00128826,0.00033485,-0.00067923,0.00074961,0.00021566,0.00050080,0.00
 051905,-0.00032177,-0.00033993,0.00294980,-0.00297804,0.00177294,0.000
 24613,-0.00010459,0.00045019,-0.00068542,0.00037265,0.00059621,0.00000
 522,0.00001348,0.00004479,-0.00092021,-0.00045727,-0.00058847,0.000024
 40,-0.00003740,-0.00001782,-0.00289521,0.00806002,-0.00315917,0.000306
 01,-0.00023322,0.00014796,-0.00032760,0.00012043,-0.00048535,0.0000002
 7,0.00002893,-0.00002948,0.00169029,-0.00027957,-0.00095692,0.00206798
 ,-0.00081753,0.00023269,-0.00973129,0.01320139,0.00752243,0.00442256,-
 0.00326038,0.00015832,-0.46479559,0.04736113,0.02682240,0.00230199,-0.
 00162462,-0.00424257,-0.00310559,-0.00569805,-0.00198312,-0.00076665,0
 .00013908,0.00028284,0.00050555,0.00020545,0.00025662,0.00047987,-0.00
 064055,-0.00005550,0.00055799,-0.00043479,-0.00035829,0.00052526,0.000
 35382,-0.00004435,-0.00045015,0.00091864,-0.00002592,0.00003124,-0.000
 00591,0.00000570,-0.00064910,-0.00030682,-0.00050127,0.00000781,-0.000
 01421,-0.00001613,-0.00062914,0.00078384,0.00017341,0.00005485,-0.0000
 3411,-0.00003180,-0.00072674,-0.00054458,0.00014538,-0.00003024,-0.000
 09294,0.00001164,0.46410144,-0.00596105,0.00050661,0.00030108,0.000098
 78,-0.00050900,-0.00013503,0.00120234,0.00002217,0.00056454,-0.0005071
 3,-0.00992028,0.00062804,0.00130183,0.00073697,-0.00048979,-0.00009701
 ,0.00000104,-0.00000209,0.00000046,0.00001677,-0.00000296,0.00004364,-
 0.00002713,-0.00003019,0.00030758,-0.00040425,0.00026524,0.00017402,-0
 .00009909,0.00012929,-0.00003845,0.00002098,0.00002366,-0.00000047,0.0
 0000340,0.00000313,-0.00000058,-0.00000575,0.00000889,-0.00000164,-0.0
 0000344,-0.00000319,0.00133274,0.00128647,-0.00107676,0.00007083,-0.00
 003657,0.00005241,-0.00023463,0.00012701,-0.00022334,0.00000981,-0.000
 00037,-0.00000746,-0.00072346,-0.00130203,0.00064260,-0.00092578,-0.00
 042105,-0.00091189,0.02228897,-0.00824631,-0.00451925,0.00229070,-0.00
 256685,-0.00099966,0.02918542,-0.02623619,-0.01028350,-0.00075115,0.00
 010060,0.00062998,-0.00126927,0.00432381,0.00203147,-0.00010950,-0.000
 13069,0.00018469,0.00009258,0.00004560,0.00002201,0.00022655,-0.000366
 69,-0.00001101,-0.00014263,0.00008834,-0.00000935,-0.00018234,-0.00004
 327,0.00000356,-0.00009018,0.00046366,-0.00009194,0.00003052,-0.000015
 84,0.00000657,-0.00015445,-0.00010398,-0.00005868,0.00000450,-0.000002
 26,0.00000614,0.00018731,-0.00014355,-0.00014129,-0.00001231,0.0000083
 9,-0.00000186,0.00025631,0.00012575,-0.00007698,0.00002379,0.00004262,
 -0.00000542,-0.04792667,0.04266442,-0.00136397,0.00035119,0.00126182,-
 0.00017056,-0.00024251,0.00001662,0.00078779,0.00013204,-0.00002792,0.
 00022798,0.00082051,-0.00611640,0.00013733,-0.00031525,-0.00032460,0.0
 0007908,0.00002401,0.00003718,-0.00000517,-0.00000952,-0.00002095,-0.0
 0001057,-0.00000520,0.00001721,-0.00023425,0.00033259,-0.00015496,0.00
 007250,-0.00004807,0.00003924,-0.00000028,-0.00000460,-0.00000832,0.00
 000473,0.00000110,-0.00000463,0.00002112,0.00000241,0.00003932,-0.0000
 0803,-0.00000076,0.00000160,-0.00077087,-0.00123599,-0.00019607,-0.000
 04633,0.00003792,-0.00001842,-0.00011881,0.00005883,-0.00010603,0.0000
 0806,-0.00000049,-0.00000005,-0.00031674,0.00005345,0.00039281,-0.0005
 4902,-0.00042163,-0.00045836,0.01321294,-0.00465113,-0.00355448,-0.001
 40795,0.00079275,0.00122256,0.01783334,-0.01021342,-0.01369259,0.00026
 672,-0.00118017,-0.00198126,-0.00023349,0.00226464,-0.00019998,0.00005
 411,0.00004756,-0.00008862,-0.00008597,-0.00003203,-0.00004492,-0.0000
 9571,0.00013404,-0.00001311,0.00007919,-0.00002954,0.00006862,0.000028
 02,-0.00001266,-0.00001436,0.00003888,-0.00014812,0.00006140,-0.000005
 95,0.00000120,-0.00000421,0.00019187,0.00004945,0.00009943,-0.00000108
 ,0.00000369,0.00000118,-0.00048847,-0.00003141,-0.00059995,-0.00000279
 ,0.00000467,-0.00000211,-0.00015163,-0.00009075,0.00010329,-0.00001865
 ,-0.00001712,-0.00000489,-0.02695737,0.01357833,0.02427493\\0.00001431
 ,0.00000708,0.00001962,-0.00003097,0.00000746,-0.00000828,0.00001056,0
 .00001390,0.00001808,-0.00001052,-0.00001990,-0.00004680,0.00001621,0.
 00002511,0.00003679,-0.00004336,0.00002000,-0.00002832,0.00004735,-0.0
 0000572,0.00000904,0.00001213,0.00000707,0.00000331,0.00002680,-0.0000
 1513,0.00000425,0.00000119,-0.00002811,-0.00000856,-0.00000280,0.00000
 201,-0.00001026,-0.00001290,0.00000877,-0.00000971,-0.00002192,-0.0000
 0828,0.00000750,-0.00001244,-0.00001496,0.00001037,0.00000925,-0.00001
 305,0.,-0.00001083,-0.00000008,-0.00002865,0.00000889,-0.00001336,0.00
 000370,-0.00000372,-0.00001366,-0.00000469,-0.00001255,0.00001726,-0.0
 0002321,0.00000482,-0.00002092,-0.00004009,-0.00005027,-0.00002536,0.0
 0003766,0.00002977,-0.00001995,0.00003750,0.00002980,0.00001178,-0.000
 04286,0.00003022,0.00002469,-0.00005518,0.00000750,-0.00000713,0.00004
 333,-0.00000763,-0.00003562,-0.00001886,0.00002490,0.00003305,0.000019
 92,0.00001449,-0.00000535,0.00003260,-0.00001059,0.00000724,0.00000989
 ,-0.00001570,0.00000095,0.00000654,-0.00000393,0.00001705,0.00000777,0
 .00000367,0.00001030,0.00000971,-0.00002350,0.00001530,-0.00001893,-0.
 00000244,0.00000910,-0.00000823,-0.00000170,-0.00000324,0.00001367,0.0
 0000645,-0.00001357,0.00000934,0.00001182,-0.00000865,-0.00000987,-0.0
 0000766,0.00001039,-0.00002373,-0.00002471,0.00002352,0.00004568\\\@


 SLITHERY-DITHERY
 FRIEDRICH A. KEKULE
 DREAMT ON A BUS OF THINGS
 FREUD WOULD THINK KEEN.
 MOST OF THE TIME THEY WERE
 HERPETOLOGICAL
 BITING THEIR TAILS IN THE
 SHAPE OF BENZENE.
 Job cpu time:       0 days 13 hours 10 minutes 43.1 seconds.
 Elapsed time:       0 days  0 hours 50 minutes 23.8 seconds.
 File lengths (MBytes):  RWF=   1840 Int=      0 D2E=      0 Chk=     52 Scr=      8
 Normal termination of Gaussian 16 at Sat Apr 30 15:55:13 2022.
