 DBCSR| CPU Multiplication driver                                           XSMM (U)
 DBCSR| Multrec recursion limit                                              512 (U)
 DBCSR| Multiplication stack size                                           1000 (D)
 DBCSR| Maximum elements for images                                    UNLIMITED (U)
 DBCSR| Multiplicative factor virtual images                                   1 (U)
 DBCSR| Use multiplication densification                                       T (D)
 DBCSR| Multiplication size stacks                                             3 (U)
 DBCSR| Use memory pool for CPU allocation                                     F (U)
 DBCSR| Number of 3D layers                                               SINGLE (U)
 DBCSR| Use MPI memory allocation                                              F (U)
 DBCSR| Use RMA algorithm                                                      F (U)
 DBCSR| Use Communication thread                                               T (U)
 DBCSR| Communication thread load                                             87 (D)
 DBCSR| MPI: My process id                                                     0
 DBCSR| MPI: Number of processes                                              48
 DBCSR| OMP: Current number of threads                                         1
 DBCSR| OMP: Max number of threads                                             1
 DBCSR| Split modifier for TAS multiplication algorithm                  1.0E+00 (U)


  **** **** ******  **  PROGRAM STARTED AT               2024-11-07 15:58:06.878
 ***** ** ***  *** **   PROGRAM STARTED ON                                  c665
 **    ****   ******    PROGRAM STARTED BY                              dprasad8
 ***** **    ** ** **   PROGRAM PROCESS ID                               1056915
  **** **  *******  **  PROGRAM STARTED IN /scratch4/nmitra1/alumina_cp2k/cellop
                                           t_dftd2/222

 CP2K| version string:                 CP2K version 2023.1 (Development Version)
 CP2K| source code revision number:                                  git:a8a26f8
 CP2K| cp2kflags: omp libint fftw3 libxc parallel scalapack xsmm                
 CP2K| is freely available from                            https://www.cp2k.org/
 CP2K| Program compiled at                          Wed May 17 21:13:02 EDT 2023
 CP2K| Program compiled on                                                  c718
 CP2K| Program compiled for                        linux-centos8-cascadelake-gcc
 CP2K| Data directory path    /data/apps/extern/spack_on/gcc/9.3.0/cp2k/2023.1-v
 CP2K| Input file name                                 alumina_celloptdftd22.inp

 GLOBAL| Force Environment number                                              1
 GLOBAL| Basis set file name                        ../../cp2k-data/BASIS_MOLOPT
 GLOBAL| Potential file name                      ../../cp2k-data/GTH_POTENTIALS
 GLOBAL| MM Potential file name                                     MM_POTENTIAL
 GLOBAL| Coordinate file name                                 alumina_unrlxd.xyz
 GLOBAL| Method name                                                        CP2K
 GLOBAL| Project name                                             Alumina_dftd22
 GLOBAL| Run type                                                       CELL_OPT
 GLOBAL| FFT library                                                       FFTW3
 GLOBAL| Diagonalization library                                       ScaLAPACK
 GLOBAL| DGEMM library                                                      BLAS
 GLOBAL| Orthonormality check for eigenvectors                          DISABLED
 GLOBAL| Matrix multiplication library                                 ScaLAPACK
 GLOBAL| All-to-all communication in single precision                          F
 GLOBAL| FFTs using library dependent lengths                                  F
 GLOBAL| Grid backend                                                       AUTO
 GLOBAL| Global print level                                               MEDIUM
 GLOBAL| MPI I/O enabled                                                       T
 GLOBAL| Total number of message passing processes                            48
 GLOBAL| Number of threads for this process                                    1
 GLOBAL| This output is from process                                           0
 GLOBAL| Stack size for threads created by OpenMP (OMP_STACKSIZE)        default
 GLOBAL| CPU model name                Intel(R) Xeon(R) Gold 6248R CPU @ 3.00GHz
 GLOBAL| CPUID                                                              1003

 MEMORY| system memory details [Kb]
 MEMORY|                        rank 0           min           max       average
 MEMORY| MemTotal            197731044     197731044     197731044     197731044
 MEMORY| MemFree             165225244     165225244     165225244     165225244
 MEMORY| Buffers                  3216          3216          3216          3216
 MEMORY| Cached                 997412        997412        997412        997412
 MEMORY| Slab                   490884        490884        490884        490884
 MEMORY| SReclaimable           130840        130840        130840        130840
 MEMORY| MemLikelyFree       166356712     166356712     166356712     166356712


 *** Fundamental physical constants (SI units) ***

 *** Literature: B. J. Mohr and B. N. Taylor,
 ***             CODATA recommended values of the fundamental physical
 ***             constants: 2006, Web Version 5.1
 ***             http://physics.nist.gov/constants

 Speed of light in vacuum [m/s]                             2.99792458000000E+08
 Magnetic constant or permeability of vacuum [N/A**2]       1.25663706143592E-06
 Electric constant or permittivity of vacuum [F/m]          8.85418781762039E-12
 Planck constant (h) [J*s]                                  6.62606896000000E-34
 Planck constant (h-bar) [J*s]                              1.05457162825177E-34
 Elementary charge [C]                                      1.60217648700000E-19
 Electron mass [kg]                                         9.10938215000000E-31
 Electron g factor [ ]                                     -2.00231930436220E+00
 Proton mass [kg]                                           1.67262163700000E-27
 Fine-structure constant                                    7.29735253760000E-03
 Rydberg constant [1/m]                                     1.09737315685270E+07
 Avogadro constant [1/mol]                                  6.02214179000000E+23
 Boltzmann constant [J/K]                                   1.38065040000000E-23
 Atomic mass unit [kg]                                      1.66053878200000E-27
 Bohr radius [m]                                            5.29177208590000E-11

 *** Conversion factors ***

 [u] -> [a.u.]                                              1.82288848426455E+03
 [Angstrom] -> [Bohr] = [a.u.]                              1.88972613288564E+00
 [a.u.] = [Bohr] -> [Angstrom]                              5.29177208590000E-01
 [a.u.] -> [s]                                              2.41888432650478E-17
 [a.u.] -> [fs]                                             2.41888432650478E-02
 [a.u.] -> [J]                                              4.35974393937059E-18
 [a.u.] -> [N]                                              8.23872205491840E-08
 [a.u.] -> [K]                                              3.15774647902944E+05
 [a.u.] -> [kJ/mol]                                         2.62549961709828E+03
 [a.u.] -> [kcal/mol]                                       6.27509468713739E+02
 [a.u.] -> [Pa]                                             2.94210107994716E+13
 [a.u.] -> [bar]                                            2.94210107994716E+08
 [a.u.] -> [atm]                                            2.90362800883016E+08
 [a.u.] -> [eV]                                             2.72113838565563E+01
 [a.u.] -> [Hz]                                             6.57968392072181E+15
 [a.u.] -> [1/cm] (wave numbers)                            2.19474631370540E+05
 [a.u./Bohr**2] -> [1/cm]                                   5.14048714338585E+03
 

 CELL_TOP| Volume [angstrom^3]:                                      3033.627759
 CELL_TOP| Vector a [angstrom    11.174     0.000     0.000   |a| =    11.174000
 CELL_TOP| Vector b [angstrom     0.000    16.826     0.000   |b| =    16.826000
 CELL_TOP| Vector c [angstrom    -0.166     0.000    16.135   |c| =    16.135996
 CELL_TOP| Angle (b,c), alpha [degree]:                                90.000000
 CELL_TOP| Angle (a,c), beta  [degree]:                                90.590012
 CELL_TOP| Angle (a,b), gamma [degree]:                                90.000000
 CELL_TOP| Numerically orthorhombic:                                          NO
 CELL_TOP| Periodicity                                                       XYZ

 CELL_UC| Volume [angstrom^3]:                                        379.203470
 CELL_UC| Vector a [angstrom]     5.587     0.000     0.000   |a| =     5.587000
 CELL_UC| Vector b [angstrom]     0.000     8.413     0.000   |b| =     8.413000
 CELL_UC| Vector c [angstrom]    -0.083     0.000     8.068   |c| =     8.067998
 CELL_UC| Angle (b,c), alpha [degree]:                                 90.000000
 CELL_UC| Angle (a,c), beta  [degree]:                                 90.590012
 CELL_UC| Angle (a,b), gamma [degree]:                                 90.000000
 CELL_UC| Numerically orthorhombic:                                           NO
 CELL_UC| Periodicity                                                        XYZ

 GENERATE|  Preliminary Number of Bonds generated:                             0
 GENERATE|  Achieved consistency in connectivity generation.

 CELL| Volume [angstrom^3]:                                          3033.627759
 CELL| Vector a [angstrom]:      11.174     0.000     0.000   |a| =    11.174000
 CELL| Vector b [angstrom]:       0.000    16.826     0.000   |b| =    16.826000
 CELL| Vector c [angstrom]:      -0.166     0.000    16.135   |c| =    16.135996
 CELL| Angle (b,c), alpha [degree]:                                    90.000000
 CELL| Angle (a,c), beta  [degree]:                                    90.590012
 CELL| Angle (a,b), gamma [degree]:                                    90.000000
 CELL| Numerically orthorhombic:                                              NO
 CELL| Periodicity                                                           XYZ

 CELL_REF| Volume [angstrom^3]:                                      3033.627759
 CELL_REF| Vector a [angstrom    11.174     0.000     0.000   |a| =    11.174000
 CELL_REF| Vector b [angstrom     0.000    16.826     0.000   |b| =    16.826000
 CELL_REF| Vector c [angstrom    -0.166     0.000    16.135   |c| =    16.135996
 CELL_REF| Angle (b,c), alpha [degree]:                                90.000000
 CELL_REF| Angle (a,c), beta  [degree]:                                90.590012
 CELL_REF| Angle (a,b), gamma [degree]:                                90.000000
 CELL_REF| Numerically orthorhombic:                                          NO
 CELL_REF| Periodicity                                                       XYZ

 *******************************************************************************
 *******************************************************************************
 **                                                                           **
 **     #####                         ##              ##                      **
 **    ##   ##            ##          ##              ##                      **
 **   ##     ##                       ##            ######                    **
 **   ##     ##  ##   ##  ##   #####  ##  ##   ####   ##    #####    #####    **
 **   ##     ##  ##   ##  ##  ##      ## ##   ##      ##   ##   ##  ##   ##   **
 **   ##  ## ##  ##   ##  ##  ##      ####     ###    ##   ######   ######    **
 **    ##  ###   ##   ##  ##  ##      ## ##      ##   ##   ##       ##        **
 **     #######   #####   ##   #####  ##  ##  ####    ##    #####   ##        **
 **           ##                                                    ##        **
 **                                                                           **
 **                                                ... make the atoms dance   **
 **                                                                           **
 **            Copyright (C) by CP2K developers group (2000-2023)             **
 **                      J. Chem. Phys. 152, 194103 (2020)                    **
 **                                                                           **
 *******************************************************************************

 DFT| Spin restricted Kohn-Sham (RKS) calculation                            RKS
 DFT| Multiplicity                                                             1
 DFT| Number of spin states                                                    1
 DFT| Charge                                                                   0
 DFT| Self-interaction correction (SIC)                                       NO
 DFT| Cutoffs: density                                              1.000000E-10
 DFT|          gradient                                             1.000000E-10
 DFT|          tau                                                  1.000000E-10
 DFT|          cutoff_smoothing_range                               0.000000E+00
 DFT| XC density smoothing                                                  NONE
 DFT| XC derivatives                                                          PW

 FUNCTIONAL| PBE:
 FUNCTIONAL| J.P.Perdew, K.Burke, M.Ernzerhof, Phys. Rev. Letter, vol. 77, n 18,
 FUNCTIONAL|  pp. 3865-3868, (1996){spin unpolarized}                           

 vdW POTENTIAL|                                                   Pair Potential
 vdW POTENTIAL|                   DFT-D2
 vdW POTENTIAL|                   Potential Form: S. Grimme, JCC 27: 1787 (2006)
 vdW POTENTIAL|                   Cutoff Radius [Bohr]:                    37.79
 vdW POTENTIAL|                   Scaling Factor:                         0.7500
 vdW POTENTIAL|                   Exp Prefactor for Damping:                20.0
 vdW PARAMETER|  Atom=Al   C6[J*nm^6*mol^-1]= 10.7900         r(vdW)[A]=  1.6390
 vdW PARAMETER|  Atom=O    C6[J*nm^6*mol^-1]=  0.7000         r(vdW)[A]=  1.3420

 QS| Method:                                                                 GPW
 QS| Density plane wave grid type                        NON-SPHERICAL FULLSPACE
 QS| Number of grid levels:                                                    4
 QS| Density cutoff [a.u.]:                                                500.0
 QS| Multi grid cutoff [a.u.]: 1) grid level                               500.0
 QS|                           2) grid level                               166.7
 QS|                           3) grid level                                55.6
 QS|                           4) grid level                                18.5
 QS| Grid level progression factor:                                          3.0
 QS| Relative density cutoff [a.u.]:                                        35.0
 QS| Interaction thresholds: eps_pgf_orb:                                1.0E-06
 QS|                         eps_filter_matrix:                          0.0E+00
 QS|                         eps_core_charge:                            1.0E-14
 QS|                         eps_rho_gspace:                             1.0E-12
 QS|                         eps_rho_rspace:                             1.0E-12
 QS|                         eps_gvg_rspace:                             1.0E-06
 QS|                         eps_ppl:                                    1.0E-02
 QS|                         eps_ppnl:                                   1.0E-08


 ATOMIC KIND INFORMATION

  1. Atomic kind: Al                                    Number of atoms:     128

     Orbital Basis Set                                     DZVP-MOLOPT-SR-GTH-q3

       Number of orbital shell sets:                                           1
       Number of orbital shells:                                               5
       Number of primitive Cartesian functions:                                4
       Number of Cartesian basis functions:                                   14
       Number of spherical basis functions:                                   13
       Norm type:                                                              2

       Normalised Cartesian orbitals:

                        Set   Shell   Orbital            Exponent    Coefficient

                          1       1    2s                1.212902       0.147703
                                                         0.454181       0.176942
                                                         0.242419      -0.255412
                                                         0.078268      -0.047918

                          1       2    3s                1.212902      -0.205401
                                                         0.454181      -0.282784
                                                         0.242419       0.451246
                                                         0.078268      -0.188270

                          1       3    3px               1.212902       0.054477
                                                         0.454181       0.028713
                                                         0.242419      -0.164201
                                                         0.078268      -0.027375
                          1       3    3py               1.212902       0.054477
                                                         0.454181       0.028713
                                                         0.242419      -0.164201
                                                         0.078268      -0.027375
                          1       3    3pz               1.212902       0.054477
                                                         0.454181       0.028713
                                                         0.242419      -0.164201
                                                         0.078268      -0.027375

                          1       4    4px               1.212902      -0.161995
                                                         0.454181       0.034524
                                                         0.242419       0.284421
                                                         0.078268      -0.077718
                          1       4    4py               1.212902      -0.161995
                                                         0.454181       0.034524
                                                         0.242419       0.284421
                                                         0.078268      -0.077718
                          1       4    4pz               1.212902      -0.161995
                                                         0.454181       0.034524
                                                         0.242419       0.284421
                                                         0.078268      -0.077718

                          1       5    4dx2              1.212902       0.283929
                                                         0.454181       0.086552
                                                         0.242419       0.083045
                                                         0.078268       0.004803
                          1       5    4dxy              1.212902       0.491779
                                                         0.454181       0.149912
                                                         0.242419       0.143839
                                                         0.078268       0.008319
                          1       5    4dxz              1.212902       0.491779
                                                         0.454181       0.149912
                                                         0.242419       0.143839
                                                         0.078268       0.008319
                          1       5    4dy2              1.212902       0.283929
                                                         0.454181       0.086552
                                                         0.242419       0.083045
                                                         0.078268       0.004803
                          1       5    4dyz              1.212902       0.491779
                                                         0.454181       0.149912
                                                         0.242419       0.143839
                                                         0.078268       0.008319
                          1       5    4dz2              1.212902       0.283929
                                                         0.454181       0.086552
                                                         0.242419       0.083045
                                                         0.078268       0.004803

       Atomic covalent radius [Angstrom]:                                  1.180

       Atomic van der Waals radius [Angstrom]:                             1.840

     GTH Potential information for                                    GTH-PBE-q3

       Description:                       Goedecker-Teter-Hutter pseudopotential
                                           Goedecker et al., PRB 54, 1703 (1996)
                                          Hartwigsen et al., PRB 58, 3641 (1998)
                                                      Krack, TCA 114, 145 (2005)

       Gaussian exponent of the core charge distribution:               2.469136
       Electronic configuration (s p d ...):                               2   1

       Parameters of the local part of the GTH pseudopotential:

                          rloc        C1          C2          C3          C4
                        0.450000   -7.554761

       Parameters of the non-local part of the GTH pseudopotential:

                   l      r(l)      h(i,j,l)

                   0    0.487435    6.959938   -1.888836
                                   -1.888836    2.438477
                   1    0.562189    1.865299

  2. Atomic kind: O                                     Number of atoms:     192

     Orbital Basis Set                                     DZVP-MOLOPT-SR-GTH-q6

       Number of orbital shell sets:                                           1
       Number of orbital shells:                                               5
       Number of primitive Cartesian functions:                                5
       Number of Cartesian basis functions:                                   14
       Number of spherical basis functions:                                   13
       Norm type:                                                              2

       Normalised Cartesian orbitals:

                        Set   Shell   Orbital            Exponent    Coefficient

                          1       1    2s               10.389228       0.396646
                                                         3.849621       0.208811
                                                         1.388401      -0.301641
                                                         0.496955      -0.274061
                                                         0.162492      -0.033677

                          1       2    3s               10.389228       0.303673
                                                         3.849621       0.240943
                                                         1.388401      -0.313066
                                                         0.496955      -0.043055
                                                         0.162492       0.213991

                          1       3    3px              10.389228      -1.530415
                                                         3.849621      -1.371928
                                                         1.388401      -0.761951
                                                         0.496955      -0.253695
                                                         0.162492      -0.035541
                          1       3    3py              10.389228      -1.530415
                                                         3.849621      -1.371928
                                                         1.388401      -0.761951
                                                         0.496955      -0.253695
                                                         0.162492      -0.035541
                          1       3    3pz              10.389228      -1.530415
                                                         3.849621      -1.371928
                                                         1.388401      -0.761951
                                                         0.496955      -0.253695
                                                         0.162492      -0.035541

                          1       4    4px              10.389228      -0.565392
                                                         3.849621      -0.038231
                                                         1.388401      -0.382373
                                                         0.496955       0.179070
                                                         0.162492       0.122714
                          1       4    4py              10.389228      -0.565392
                                                         3.849621      -0.038231
                                                         1.388401      -0.382373
                                                         0.496955       0.179070
                                                         0.162492       0.122714
                          1       4    4pz              10.389228      -0.565392
                                                         3.849621      -0.038231
                                                         1.388401      -0.382373
                                                         0.496955       0.179070
                                                         0.162492       0.122714

                          1       5    4dx2             10.389228       1.867377
                                                         3.849621       0.670994
                                                         1.388401       1.353441
                                                         0.496955       0.273538
                                                         0.162492       0.006620
                          1       5    4dxy             10.389228       3.234392
                                                         3.849621       1.162195
                                                         1.388401       2.344229
                                                         0.496955       0.473781
                                                         0.162492       0.011466
                          1       5    4dxz             10.389228       3.234392
                                                         3.849621       1.162195
                                                         1.388401       2.344229
                                                         0.496955       0.473781
                                                         0.162492       0.011466
                          1       5    4dy2             10.389228       1.867377
                                                         3.849621       0.670994
                                                         1.388401       1.353441
                                                         0.496955       0.273538
                                                         0.162492       0.006620
                          1       5    4dyz             10.389228       3.234392
                                                         3.849621       1.162195
                                                         1.388401       2.344229
                                                         0.496955       0.473781
                                                         0.162492       0.011466
                          1       5    4dz2             10.389228       1.867377
                                                         3.849621       0.670994
                                                         1.388401       1.353441
                                                         0.496955       0.273538
                                                         0.162492       0.006620

       Atomic covalent radius [Angstrom]:                                  0.730

       Atomic van der Waals radius [Angstrom]:                             1.520

     GTH Potential information for                                    GTH-PBE-q6

       Description:                       Goedecker-Teter-Hutter pseudopotential
                                           Goedecker et al., PRB 54, 1703 (1996)
                                          Hartwigsen et al., PRB 58, 3641 (1998)
                                                      Krack, TCA 114, 145 (2005)

       Gaussian exponent of the core charge distribution:               8.360253
       Electronic configuration (s p d ...):                               2   4

       Parameters of the local part of the GTH pseudopotential:

                          rloc        C1          C2          C3          C4
                        0.244554  -16.667215    2.487311

       Parameters of the non-local part of the GTH pseudopotential:

                   l      r(l)      h(i,j,l)

                   0    0.220956   18.337458
                   1    0.211332


 MOLECULE KIND INFORMATION


 All atoms are their own molecule, skipping detailed information


 TOTAL NUMBERS AND MAXIMUM NUMBERS

  Total number of            - Atomic kinds:                                   2
                             - Atoms:                                        320
                             - Shell sets:                                   320
                             - Shells:                                      1600
                             - Primitive Cartesian functions:               1472
                             - Cartesian basis functions:                   4480
                             - Spherical basis functions:                   4160

  Maximum angular momentum of- Orbital basis functions:                        2
                             - Local part of the GTH pseudopotential:          2
                             - Non-local part of the GTH pseudopotential:      2


 MODULE QUICKSTEP: ATOMIC COORDINATES IN ANGSTROM

   Atom Kind Element         X             Y             Z       Z(eff)     Mass
      1    1 Al   13      2.095830      6.309750      1.016510   3.0000  26.9815
      2    1 Al   13      4.808140      2.103250      4.017650   3.0000  26.9815
      3    1 Al   13      4.878240      6.309750      1.008450   3.0000  26.9815
      4    1 Al   13      3.374110      6.309750      6.010340   3.0000  26.9815
      5    1 Al   13      1.999590      0.630980      4.937350   3.0000  26.9815
      6    1 Al   13      0.576480      4.871130      6.954250   3.0000  26.9815
      7    2 O     8      4.849540      6.309750      7.051060   6.0000  15.9994
      8    2 O     8      3.377250      2.103250      5.163250   6.0000  15.9994
      9    2 O     8      1.959810      6.309750      7.172070   6.0000  15.9994
     10    2 O     8      0.685390      2.103250      5.058370   6.0000  15.9994
     11    2 O     8      4.892160      3.415680      7.252750   6.0000  15.9994
     12    2 O     8      3.329120      7.714720      4.953490   6.0000  15.9994
     13    2 O     8      1.923690      3.415680      6.881640   6.0000  15.9994
     14    2 O     8      0.718090      7.706310      5.139040   6.0000  15.9994
     15    1 Al   13      3.408090      2.103250      7.051060   3.0000  26.9815
     16    1 Al   13      0.695780      6.309750      4.049920   3.0000  26.9815
     17    1 Al   13      0.625680      2.103250      7.059130   3.0000  26.9815
     18    1 Al   13      2.129810      2.103250      2.057230   3.0000  26.9815
     19    1 Al   13      3.504340      4.837470      3.130220   3.0000  26.9815
     20    1 Al   13      3.504340      7.782030      3.130220   3.0000  26.9815
     21    1 Al   13      1.999590      3.575530      4.937350   3.0000  26.9815
     22    1 Al   13      4.927440      0.664630      1.113320   3.0000  26.9815
     23    1 Al   13      4.927440      3.541870      1.113320   3.0000  26.9815
     24    1 Al   13      0.576480      7.748370      6.954250   3.0000  26.9815
     25    2 O     8      0.654390      2.103250      1.016510   6.0000  15.9994
     26    2 O     8      2.126670      6.309750      2.904330   6.0000  15.9994
     27    2 O     8      3.544110      2.103250      0.895500   6.0000  15.9994
     28    2 O     8      4.818530      6.309750      3.009200   6.0000  15.9994
     29    2 O     8      0.611770      7.622180      0.814820   6.0000  15.9994
     30    2 O     8      0.611770      4.997320      0.814820   6.0000  15.9994
     31    2 O     8      4.892160      0.790820      7.252750   6.0000  15.9994
     32    2 O     8      2.174800      3.508220      3.114080   6.0000  15.9994
     33    2 O     8      2.174800      0.698280      3.114080   6.0000  15.9994
     34    2 O     8      3.329120      4.904780      4.953490   6.0000  15.9994
     35    2 O     8      3.580230      7.622180      1.185930   6.0000  15.9994
     36    2 O     8      3.580230      4.997320      1.185930   6.0000  15.9994
     37    2 O     8      1.923690      0.790820      6.881640   6.0000  15.9994
     38    2 O     8      4.785840      3.499810      2.928530   6.0000  15.9994
     39    2 O     8      4.785840      0.706690      2.928530   6.0000  15.9994
     40    2 O     8      0.718090      4.913190      5.139040   6.0000  15.9994
     41    1 Al   13      7.682830      6.309750      1.016510   3.0000  26.9815
     42    1 Al   13     10.395140      2.103250      4.017650   3.0000  26.9815
     43    1 Al   13     10.465240      6.309750      1.008450   3.0000  26.9815
     44    1 Al   13      8.961110      6.309750      6.010340   3.0000  26.9815
     45    1 Al   13      7.586590      0.630980      4.937350   3.0000  26.9815
     46    1 Al   13      6.163480      4.871130      6.954250   3.0000  26.9815
     47    2 O     8     10.436540      6.309750      7.051060   6.0000  15.9994
     48    2 O     8      8.964250      2.103250      5.163250   6.0000  15.9994
     49    2 O     8      7.546810      6.309750      7.172070   6.0000  15.9994
     50    2 O     8      6.272390      2.103250      5.058370   6.0000  15.9994
     51    2 O     8     10.479160      3.415680      7.252750   6.0000  15.9994
     52    2 O     8      8.916120      7.714720      4.953490   6.0000  15.9994
     53    2 O     8      7.510690      3.415680      6.881640   6.0000  15.9994
     54    2 O     8      6.305090      7.706310      5.139040   6.0000  15.9994
     55    1 Al   13      8.995090      2.103250      7.051060   3.0000  26.9815
     56    1 Al   13      6.282780      6.309750      4.049920   3.0000  26.9815
     57    1 Al   13      6.212680      2.103250      7.059130   3.0000  26.9815
     58    1 Al   13      7.716810      2.103250      2.057230   3.0000  26.9815
     59    1 Al   13      9.091340      4.837470      3.130220   3.0000  26.9815
     60    1 Al   13      9.091340      7.782030      3.130220   3.0000  26.9815
     61    1 Al   13      7.586590      3.575530      4.937350   3.0000  26.9815
     62    1 Al   13     10.514440      0.664630      1.113320   3.0000  26.9815
     63    1 Al   13     10.514440      3.541870      1.113320   3.0000  26.9815
     64    1 Al   13      6.163480      7.748370      6.954250   3.0000  26.9815
     65    2 O     8      6.241390      2.103250      1.016510   6.0000  15.9994
     66    2 O     8      7.713670      6.309750      2.904330   6.0000  15.9994
     67    2 O     8      9.131110      2.103250      0.895500   6.0000  15.9994
     68    2 O     8     10.405530      6.309750      3.009200   6.0000  15.9994
     69    2 O     8      6.198770      7.622180      0.814820   6.0000  15.9994
     70    2 O     8      6.198770      4.997320      0.814820   6.0000  15.9994
     71    2 O     8     10.479160      0.790820      7.252750   6.0000  15.9994
     72    2 O     8      7.761800      3.508220      3.114080   6.0000  15.9994
     73    2 O     8      7.761800      0.698280      3.114080   6.0000  15.9994
     74    2 O     8      8.916120      4.904780      4.953490   6.0000  15.9994
     75    2 O     8      9.167230      7.622180      1.185930   6.0000  15.9994
     76    2 O     8      9.167230      4.997320      1.185930   6.0000  15.9994
     77    2 O     8      7.510690      0.790820      6.881640   6.0000  15.9994
     78    2 O     8     10.372840      3.499810      2.928530   6.0000  15.9994
     79    2 O     8     10.372840      0.706690      2.928530   6.0000  15.9994
     80    2 O     8      6.305090      4.913190      5.139040   6.0000  15.9994
     81    1 Al   13      2.095830     14.722750      1.016510   3.0000  26.9815
     82    1 Al   13      4.808140     10.516250      4.017650   3.0000  26.9815
     83    1 Al   13      4.878240     14.722750      1.008450   3.0000  26.9815
     84    1 Al   13      3.374110     14.722750      6.010340   3.0000  26.9815
     85    1 Al   13      1.999590      9.043980      4.937350   3.0000  26.9815
     86    1 Al   13      0.576480     13.284130      6.954250   3.0000  26.9815
     87    2 O     8      4.849540     14.722750      7.051060   6.0000  15.9994
     88    2 O     8      3.377250     10.516250      5.163250   6.0000  15.9994
     89    2 O     8      1.959810     14.722750      7.172070   6.0000  15.9994
     90    2 O     8      0.685390     10.516250      5.058370   6.0000  15.9994
     91    2 O     8      4.892160     11.828680      7.252750   6.0000  15.9994
     92    2 O     8      3.329120     16.127720      4.953490   6.0000  15.9994
     93    2 O     8      1.923690     11.828680      6.881640   6.0000  15.9994
     94    2 O     8      0.718090     16.119310      5.139040   6.0000  15.9994
     95    1 Al   13      3.408090     10.516250      7.051060   3.0000  26.9815
     96    1 Al   13      0.695780     14.722750      4.049920   3.0000  26.9815
     97    1 Al   13      0.625680     10.516250      7.059130   3.0000  26.9815
     98    1 Al   13      2.129810     10.516250      2.057230   3.0000  26.9815
     99    1 Al   13      3.504340     13.250470      3.130220   3.0000  26.9815
    100    1 Al   13      3.504340     16.195030      3.130220   3.0000  26.9815
    101    1 Al   13      1.999590     11.988530      4.937350   3.0000  26.9815
    102    1 Al   13      4.927440      9.077630      1.113320   3.0000  26.9815
    103    1 Al   13      4.927440     11.954870      1.113320   3.0000  26.9815
    104    1 Al   13      0.576480     16.161370      6.954250   3.0000  26.9815
    105    2 O     8      0.654390     10.516250      1.016510   6.0000  15.9994
    106    2 O     8      2.126670     14.722750      2.904330   6.0000  15.9994
    107    2 O     8      3.544110     10.516250      0.895500   6.0000  15.9994
    108    2 O     8      4.818530     14.722750      3.009200   6.0000  15.9994
    109    2 O     8      0.611770     16.035180      0.814820   6.0000  15.9994
    110    2 O     8      0.611770     13.410320      0.814820   6.0000  15.9994
    111    2 O     8      4.892160      9.203820      7.252750   6.0000  15.9994
    112    2 O     8      2.174800     11.921220      3.114080   6.0000  15.9994
    113    2 O     8      2.174800      9.111280      3.114080   6.0000  15.9994
    114    2 O     8      3.329120     13.317780      4.953490   6.0000  15.9994
    115    2 O     8      3.580230     16.035180      1.185930   6.0000  15.9994
    116    2 O     8      3.580230     13.410320      1.185930   6.0000  15.9994
    117    2 O     8      1.923690      9.203820      6.881640   6.0000  15.9994
    118    2 O     8      4.785840     11.912810      2.928530   6.0000  15.9994
    119    2 O     8      4.785840      9.119690      2.928530   6.0000  15.9994
    120    2 O     8      0.718090     13.326190      5.139040   6.0000  15.9994
    121    1 Al   13      7.682830     14.722750      1.016510   3.0000  26.9815
    122    1 Al   13     10.395140     10.516250      4.017650   3.0000  26.9815
    123    1 Al   13     10.465240     14.722750      1.008450   3.0000  26.9815
    124    1 Al   13      8.961110     14.722750      6.010340   3.0000  26.9815
    125    1 Al   13      7.586590      9.043980      4.937350   3.0000  26.9815
    126    1 Al   13      6.163480     13.284130      6.954250   3.0000  26.9815
    127    2 O     8     10.436540     14.722750      7.051060   6.0000  15.9994
    128    2 O     8      8.964250     10.516250      5.163250   6.0000  15.9994
    129    2 O     8      7.546810     14.722750      7.172070   6.0000  15.9994
    130    2 O     8      6.272390     10.516250      5.058370   6.0000  15.9994
    131    2 O     8     10.479160     11.828680      7.252750   6.0000  15.9994
    132    2 O     8      8.916120     16.127720      4.953490   6.0000  15.9994
    133    2 O     8      7.510690     11.828680      6.881640   6.0000  15.9994
    134    2 O     8      6.305090     16.119310      5.139040   6.0000  15.9994
    135    1 Al   13      8.995090     10.516250      7.051060   3.0000  26.9815
    136    1 Al   13      6.282780     14.722750      4.049920   3.0000  26.9815
    137    1 Al   13      6.212680     10.516250      7.059130   3.0000  26.9815
    138    1 Al   13      7.716810     10.516250      2.057230   3.0000  26.9815
    139    1 Al   13      9.091340     13.250470      3.130220   3.0000  26.9815
    140    1 Al   13      9.091340     16.195030      3.130220   3.0000  26.9815
    141    1 Al   13      7.586590     11.988530      4.937350   3.0000  26.9815
    142    1 Al   13     10.514440      9.077630      1.113320   3.0000  26.9815
    143    1 Al   13     10.514440     11.954870      1.113320   3.0000  26.9815
    144    1 Al   13      6.163480     16.161370      6.954250   3.0000  26.9815
    145    2 O     8      6.241390     10.516250      1.016510   6.0000  15.9994
    146    2 O     8      7.713670     14.722750      2.904330   6.0000  15.9994
    147    2 O     8      9.131110     10.516250      0.895500   6.0000  15.9994
    148    2 O     8     10.405530     14.722750      3.009200   6.0000  15.9994
    149    2 O     8      6.198770     16.035180      0.814820   6.0000  15.9994
    150    2 O     8      6.198770     13.410320      0.814820   6.0000  15.9994
    151    2 O     8     10.479160      9.203820      7.252750   6.0000  15.9994
    152    2 O     8      7.761800     11.921220      3.114080   6.0000  15.9994
    153    2 O     8      7.761800      9.111280      3.114080   6.0000  15.9994
    154    2 O     8      8.916120     13.317780      4.953490   6.0000  15.9994
    155    2 O     8      9.167230     16.035180      1.185930   6.0000  15.9994
    156    2 O     8      9.167230     13.410320      1.185930   6.0000  15.9994
    157    2 O     8      7.510690      9.203820      6.881640   6.0000  15.9994
    158    2 O     8     10.372840     11.912810      2.928530   6.0000  15.9994
    159    2 O     8     10.372840      9.119690      2.928530   6.0000  15.9994
    160    2 O     8      6.305090     13.326190      5.139040   6.0000  15.9994
    161    1 Al   13      2.012750      6.309750      9.084080   3.0000  26.9815
    162    1 Al   13      4.725060      2.103250     12.085220   3.0000  26.9815
    163    1 Al   13      4.795160      6.309750      9.076020   3.0000  26.9815
    164    1 Al   13      3.291030      6.309750     14.077910   3.0000  26.9815
    165    1 Al   13      1.916510      0.630980     13.004920   3.0000  26.9815
    166    1 Al   13      0.493400      4.871130     15.021820   3.0000  26.9815
    167    2 O     8      4.766460      6.309750     15.118630   6.0000  15.9994
    168    2 O     8      3.294170      2.103250     13.230820   6.0000  15.9994
    169    2 O     8      1.876730      6.309750     15.239640   6.0000  15.9994
    170    2 O     8      0.602310      2.103250     13.125940   6.0000  15.9994
    171    2 O     8      4.809080      3.415680     15.320320   6.0000  15.9994
    172    2 O     8      3.246040      7.714720     13.021060   6.0000  15.9994
    173    2 O     8      1.840610      3.415680     14.949210   6.0000  15.9994
    174    2 O     8      0.635010      7.706310     13.206610   6.0000  15.9994
    175    1 Al   13      3.325010      2.103250     15.118630   3.0000  26.9815
    176    1 Al   13      0.612700      6.309750     12.117490   3.0000  26.9815
    177    1 Al   13      0.542600      2.103250     15.126700   3.0000  26.9815
    178    1 Al   13      2.046730      2.103250     10.124800   3.0000  26.9815
    179    1 Al   13      3.421260      4.837470     11.197790   3.0000  26.9815
    180    1 Al   13      3.421260      7.782030     11.197790   3.0000  26.9815
    181    1 Al   13      1.916510      3.575530     13.004920   3.0000  26.9815
    182    1 Al   13      4.844360      0.664630      9.180890   3.0000  26.9815
    183    1 Al   13      4.844360      3.541870      9.180890   3.0000  26.9815
    184    1 Al   13      0.493400      7.748370     15.021820   3.0000  26.9815
    185    2 O     8      0.571310      2.103250      9.084080   6.0000  15.9994
    186    2 O     8      2.043590      6.309750     10.971900   6.0000  15.9994
    187    2 O     8      3.461030      2.103250      8.963070   6.0000  15.9994
    188    2 O     8      4.735450      6.309750     11.076770   6.0000  15.9994
    189    2 O     8      0.528690      7.622180      8.882390   6.0000  15.9994
    190    2 O     8      0.528690      4.997320      8.882390   6.0000  15.9994
    191    2 O     8      4.809080      0.790820     15.320320   6.0000  15.9994
    192    2 O     8      2.091720      3.508220     11.181650   6.0000  15.9994
    193    2 O     8      2.091720      0.698280     11.181650   6.0000  15.9994
    194    2 O     8      3.246040      4.904780     13.021060   6.0000  15.9994
    195    2 O     8      3.497150      7.622180      9.253500   6.0000  15.9994
    196    2 O     8      3.497150      4.997320      9.253500   6.0000  15.9994
    197    2 O     8      1.840610      0.790820     14.949210   6.0000  15.9994
    198    2 O     8      4.702760      3.499810     10.996100   6.0000  15.9994
    199    2 O     8      4.702760      0.706690     10.996100   6.0000  15.9994
    200    2 O     8      0.635010      4.913190     13.206610   6.0000  15.9994
    201    1 Al   13      7.599750      6.309750      9.084080   3.0000  26.9815
    202    1 Al   13     10.312060      2.103250     12.085220   3.0000  26.9815
    203    1 Al   13     10.382160      6.309750      9.076020   3.0000  26.9815
    204    1 Al   13      8.878030      6.309750     14.077910   3.0000  26.9815
    205    1 Al   13      7.503510      0.630980     13.004920   3.0000  26.9815
    206    1 Al   13      6.080400      4.871130     15.021820   3.0000  26.9815
    207    2 O     8     10.353460      6.309750     15.118630   6.0000  15.9994
    208    2 O     8      8.881170      2.103250     13.230820   6.0000  15.9994
    209    2 O     8      7.463730      6.309750     15.239640   6.0000  15.9994
    210    2 O     8      6.189310      2.103250     13.125940   6.0000  15.9994
    211    2 O     8     10.396080      3.415680     15.320320   6.0000  15.9994
    212    2 O     8      8.833040      7.714720     13.021060   6.0000  15.9994
    213    2 O     8      7.427610      3.415680     14.949210   6.0000  15.9994
    214    2 O     8      6.222010      7.706310     13.206610   6.0000  15.9994
    215    1 Al   13      8.912010      2.103250     15.118630   3.0000  26.9815
    216    1 Al   13      6.199700      6.309750     12.117490   3.0000  26.9815
    217    1 Al   13      6.129600      2.103250     15.126700   3.0000  26.9815
    218    1 Al   13      7.633730      2.103250     10.124800   3.0000  26.9815
    219    1 Al   13      9.008260      4.837470     11.197790   3.0000  26.9815
    220    1 Al   13      9.008260      7.782030     11.197790   3.0000  26.9815
    221    1 Al   13      7.503510      3.575530     13.004920   3.0000  26.9815
    222    1 Al   13     10.431360      0.664630      9.180890   3.0000  26.9815
    223    1 Al   13     10.431360      3.541870      9.180890   3.0000  26.9815
    224    1 Al   13      6.080400      7.748370     15.021820   3.0000  26.9815
    225    2 O     8      6.158310      2.103250      9.084080   6.0000  15.9994
    226    2 O     8      7.630590      6.309750     10.971900   6.0000  15.9994
    227    2 O     8      9.048030      2.103250      8.963070   6.0000  15.9994
    228    2 O     8     10.322450      6.309750     11.076770   6.0000  15.9994
    229    2 O     8      6.115690      7.622180      8.882390   6.0000  15.9994
    230    2 O     8      6.115690      4.997320      8.882390   6.0000  15.9994
    231    2 O     8     10.396080      0.790820     15.320320   6.0000  15.9994
    232    2 O     8      7.678720      3.508220     11.181650   6.0000  15.9994
    233    2 O     8      7.678720      0.698280     11.181650   6.0000  15.9994
    234    2 O     8      8.833040      4.904780     13.021060   6.0000  15.9994
    235    2 O     8      9.084150      7.622180      9.253500   6.0000  15.9994
    236    2 O     8      9.084150      4.997320      9.253500   6.0000  15.9994
    237    2 O     8      7.427610      0.790820     14.949210   6.0000  15.9994
    238    2 O     8     10.289760      3.499810     10.996100   6.0000  15.9994
    239    2 O     8     10.289760      0.706690     10.996100   6.0000  15.9994
    240    2 O     8      6.222010      4.913190     13.206610   6.0000  15.9994
    241    1 Al   13      2.012750     14.722750      9.084080   3.0000  26.9815
    242    1 Al   13      4.725060     10.516250     12.085220   3.0000  26.9815
    243    1 Al   13      4.795160     14.722750      9.076020   3.0000  26.9815
    244    1 Al   13      3.291030     14.722750     14.077910   3.0000  26.9815
    245    1 Al   13      1.916510      9.043980     13.004920   3.0000  26.9815
    246    1 Al   13      0.493400     13.284130     15.021820   3.0000  26.9815
    247    2 O     8      4.766460     14.722750     15.118630   6.0000  15.9994
    248    2 O     8      3.294170     10.516250     13.230820   6.0000  15.9994
    249    2 O     8      1.876730     14.722750     15.239640   6.0000  15.9994
    250    2 O     8      0.602310     10.516250     13.125940   6.0000  15.9994
    251    2 O     8      4.809080     11.828680     15.320320   6.0000  15.9994
    252    2 O     8      3.246040     16.127720     13.021060   6.0000  15.9994
    253    2 O     8      1.840610     11.828680     14.949210   6.0000  15.9994
    254    2 O     8      0.635010     16.119310     13.206610   6.0000  15.9994
    255    1 Al   13      3.325010     10.516250     15.118630   3.0000  26.9815
    256    1 Al   13      0.612700     14.722750     12.117490   3.0000  26.9815
    257    1 Al   13      0.542600     10.516250     15.126700   3.0000  26.9815
    258    1 Al   13      2.046730     10.516250     10.124800   3.0000  26.9815
    259    1 Al   13      3.421260     13.250470     11.197790   3.0000  26.9815
    260    1 Al   13      3.421260     16.195030     11.197790   3.0000  26.9815
    261    1 Al   13      1.916510     11.988530     13.004920   3.0000  26.9815
    262    1 Al   13      4.844360      9.077630      9.180890   3.0000  26.9815
    263    1 Al   13      4.844360     11.954870      9.180890   3.0000  26.9815
    264    1 Al   13      0.493400     16.161370     15.021820   3.0000  26.9815
    265    2 O     8      0.571310     10.516250      9.084080   6.0000  15.9994
    266    2 O     8      2.043590     14.722750     10.971900   6.0000  15.9994
    267    2 O     8      3.461030     10.516250      8.963070   6.0000  15.9994
    268    2 O     8      4.735450     14.722750     11.076770   6.0000  15.9994
    269    2 O     8      0.528690     16.035180      8.882390   6.0000  15.9994
    270    2 O     8      0.528690     13.410320      8.882390   6.0000  15.9994
    271    2 O     8      4.809080      9.203820     15.320320   6.0000  15.9994
    272    2 O     8      2.091720     11.921220     11.181650   6.0000  15.9994
    273    2 O     8      2.091720      9.111280     11.181650   6.0000  15.9994
    274    2 O     8      3.246040     13.317780     13.021060   6.0000  15.9994
    275    2 O     8      3.497150     16.035180      9.253500   6.0000  15.9994
    276    2 O     8      3.497150     13.410320      9.253500   6.0000  15.9994
    277    2 O     8      1.840610      9.203820     14.949210   6.0000  15.9994
    278    2 O     8      4.702760     11.912810     10.996100   6.0000  15.9994
    279    2 O     8      4.702760      9.119690     10.996100   6.0000  15.9994
    280    2 O     8      0.635010     13.326190     13.206610   6.0000  15.9994
    281    1 Al   13      7.599750     14.722750      9.084080   3.0000  26.9815
    282    1 Al   13     10.312060     10.516250     12.085220   3.0000  26.9815
    283    1 Al   13     10.382160     14.722750      9.076020   3.0000  26.9815
    284    1 Al   13      8.878030     14.722750     14.077910   3.0000  26.9815
    285    1 Al   13      7.503510      9.043980     13.004920   3.0000  26.9815
    286    1 Al   13      6.080400     13.284130     15.021820   3.0000  26.9815
    287    2 O     8     10.353460     14.722750     15.118630   6.0000  15.9994
    288    2 O     8      8.881170     10.516250     13.230820   6.0000  15.9994
    289    2 O     8      7.463730     14.722750     15.239640   6.0000  15.9994
    290    2 O     8      6.189310     10.516250     13.125940   6.0000  15.9994
    291    2 O     8     10.396080     11.828680     15.320320   6.0000  15.9994
    292    2 O     8      8.833040     16.127720     13.021060   6.0000  15.9994
    293    2 O     8      7.427610     11.828680     14.949210   6.0000  15.9994
    294    2 O     8      6.222010     16.119310     13.206610   6.0000  15.9994
    295    1 Al   13      8.912010     10.516250     15.118630   3.0000  26.9815
    296    1 Al   13      6.199700     14.722750     12.117490   3.0000  26.9815
    297    1 Al   13      6.129600     10.516250     15.126700   3.0000  26.9815
    298    1 Al   13      7.633730     10.516250     10.124800   3.0000  26.9815
    299    1 Al   13      9.008260     13.250470     11.197790   3.0000  26.9815
    300    1 Al   13      9.008260     16.195030     11.197790   3.0000  26.9815
    301    1 Al   13      7.503510     11.988530     13.004920   3.0000  26.9815
    302    1 Al   13     10.431360      9.077630      9.180890   3.0000  26.9815
    303    1 Al   13     10.431360     11.954870      9.180890   3.0000  26.9815
    304    1 Al   13      6.080400     16.161370     15.021820   3.0000  26.9815
    305    2 O     8      6.158310     10.516250      9.084080   6.0000  15.9994
    306    2 O     8      7.630590     14.722750     10.971900   6.0000  15.9994
    307    2 O     8      9.048030     10.516250      8.963070   6.0000  15.9994
    308    2 O     8     10.322450     14.722750     11.076770   6.0000  15.9994
    309    2 O     8      6.115690     16.035180      8.882390   6.0000  15.9994
    310    2 O     8      6.115690     13.410320      8.882390   6.0000  15.9994
    311    2 O     8     10.396080      9.203820     15.320320   6.0000  15.9994
    312    2 O     8      7.678720     11.921220     11.181650   6.0000  15.9994
    313    2 O     8      7.678720      9.111280     11.181650   6.0000  15.9994
    314    2 O     8      8.833040     13.317780     13.021060   6.0000  15.9994
    315    2 O     8      9.084150     16.035180      9.253500   6.0000  15.9994
    316    2 O     8      9.084150     13.410320      9.253500   6.0000  15.9994
    317    2 O     8      7.427610      9.203820     14.949210   6.0000  15.9994
    318    2 O     8     10.289760     11.912810     10.996100   6.0000  15.9994
    319    2 O     8     10.289760      9.119690     10.996100   6.0000  15.9994
    320    2 O     8      6.222010     13.326190     13.206610   6.0000  15.9994



 SCF PARAMETERS         Density guess:                                    ATOMIC
                        --------------------------------------------------------
                        max_scf:                                             200
                        max_scf_history:                                       0
                        max_diis:                                              4
                        --------------------------------------------------------
                        eps_scf:                                        1.00E-08
                        eps_scf_history:                                0.00E+00
                        eps_diis:                                       1.00E-01
                        eps_eigval:                                     1.00E-05
                        --------------------------------------------------------
                        level_shift [a.u.]:                             0.000000
                        --------------------------------------------------------
                        Outer loop SCF in use 
                        No variables optimised in outer loop
                        eps_scf                                         1.00E-08
                        max_scf                                               20
                        No outer loop optimization
                        step_size                                       5.00E-01

 PW_GRID| Information for grid number                                          1
 PW_GRID| Grid distributed over                                    48 processors
 PW_GRID| Real space group dimensions                                    48    1
 PW_GRID| the grid is blocked:                                                NO
 PW_GRID| Cutoff [a.u.]                                                    500.0
 PW_GRID| spherical cutoff:                                                   NO
 PW_GRID|   Bounds   1           -108     107                Points:         216
 PW_GRID|   Bounds   2           -162     161                Points:         324
 PW_GRID|   Bounds   3           -160     159                Points:         320
 PW_GRID| Volume element (a.u.^3)  0.9141E-03     Volume (a.u.^3)     20471.9351
 PW_GRID| Grid span                                                    FULLSPACE
 PW_GRID|   Distribution                         Average         Max         Min
 PW_GRID|   G-Vectors                           466560.0      466560      466560
 PW_GRID|   G-Rays                                2160.0        2160        2160
 PW_GRID|   Real Space Points                   466560.0      518400      414720

 PW_GRID| Information for grid number                                          2
 PW_GRID| Number of the reference grid                                         1
 PW_GRID| Grid distributed over                                    48 processors
 PW_GRID| Real space group dimensions                                    48    1
 PW_GRID| the grid is blocked:                                                NO
 PW_GRID| Cutoff [a.u.]                                                    166.7
 PW_GRID| spherical cutoff:                                                   NO
 PW_GRID|   Bounds   1            -62      62                Points:         125
 PW_GRID|   Bounds   2            -96      95                Points:         192
 PW_GRID|   Bounds   3            -90      89                Points:         180
 PW_GRID| Volume element (a.u.^3)  0.4739E-02     Volume (a.u.^3)     20471.9351
 PW_GRID| Grid span                                                    FULLSPACE
 PW_GRID|   Distribution                         Average         Max         Min
 PW_GRID|   G-Vectors                            90000.0       90250       89625
 PW_GRID|   G-Rays                                 720.0         722         717
 PW_GRID|   Real Space Points                    90000.0      103680       69120

 PW_GRID| Information for grid number                                          3
 PW_GRID| Number of the reference grid                                         1
 PW_GRID| Grid distributed over                                    48 processors
 PW_GRID| Real space group dimensions                                    48    1
 PW_GRID| the grid is blocked:                                                NO
 PW_GRID| Cutoff [a.u.]                                                     55.6
 PW_GRID| spherical cutoff:                                                   NO
 PW_GRID|   Bounds   1            -36      35                Points:          72
 PW_GRID|   Bounds   2            -54      53                Points:         108
 PW_GRID|   Bounds   3            -54      53                Points:         108
 PW_GRID| Volume element (a.u.^3)  0.2438E-01     Volume (a.u.^3)     20471.9351
 PW_GRID| Grid span                                                    FULLSPACE
 PW_GRID|   Distribution                         Average         Max         Min
 PW_GRID|   G-Vectors                            17496.0       17568       17424
 PW_GRID|   G-Rays                                 243.0         244         242
 PW_GRID|   Real Space Points                    17496.0       23328       11664

 PW_GRID| Information for grid number                                          4
 PW_GRID| Number of the reference grid                                         1
 PW_GRID| Grid distributed over                                    48 processors
 PW_GRID| Real space group dimensions                                     6    8
 PW_GRID| the grid is blocked:                                                NO
 PW_GRID| Cutoff [a.u.]                                                     18.5
 PW_GRID| spherical cutoff:                                                   NO
 PW_GRID|   Bounds   1            -22      22                Points:          45
 PW_GRID|   Bounds   2            -32      31                Points:          64
 PW_GRID|   Bounds   3            -30      29                Points:          60
 PW_GRID| Volume element (a.u.^3)  0.1185         Volume (a.u.^3)     20471.9351
 PW_GRID| Grid span                                                    FULLSPACE
 PW_GRID|   Distribution                         Average         Max         Min
 PW_GRID|   G-Vectors                             3600.0        3690        3510
 PW_GRID|   G-Rays                                  80.0          82          78
 PW_GRID|   Real Space Points                     3600.0        3840        3360

 POISSON| Solver                                                        PERIODIC
 POISSON| Periodicity                                                        XYZ

 RS_GRID| Information for grid number                                          1
 RS_GRID|   Bounds   1           -108     107                Points:         216
 RS_GRID|   Bounds   2           -162     161                Points:         324
 RS_GRID|   Bounds   3           -160     159                Points:         320
 RS_GRID| Real space distribution over                                  6 groups
 RS_GRID| Real space distribution along direction                              2
 RS_GRID| Border size                                                         38
 RS_GRID| Real space distribution over                                  8 groups
 RS_GRID| Real space distribution along direction                              3
 RS_GRID| Border size                                                         38
 RS_GRID|   Distribution                         Average         Max         Min
 RS_GRID|   Planes                                 130.0         130         130
 RS_GRID|   Distribution                         Average         Max         Min
 RS_GRID|   Planes                                 116.0         116         116

 RS_GRID| Information for grid number                                          2
 RS_GRID|   Bounds   1            -62      62                Points:         125
 RS_GRID|   Bounds   2            -96      95                Points:         192
 RS_GRID|   Bounds   3            -90      89                Points:         180
 RS_GRID| Real space distribution over                                  6 groups
 RS_GRID| Real space distribution along direction                              2
 RS_GRID| Border size                                                         30
 RS_GRID| Real space distribution over                                  8 groups
 RS_GRID| Real space distribution along direction                              3
 RS_GRID| Border size                                                         30
 RS_GRID|   Distribution                         Average         Max         Min
 RS_GRID|   Planes                                  92.0          92          92
 RS_GRID|   Distribution                         Average         Max         Min
 RS_GRID|   Planes                                  82.5          83          82

 RS_GRID| Information for grid number                                          3
 RS_GRID|   Bounds   1            -36      35                Points:          72
 RS_GRID|   Bounds   2            -54      53                Points:         108
 RS_GRID|   Bounds   3            -54      53                Points:         108
 RS_GRID| Real space fully replicated
 RS_GRID| Group size                                                           1

 RS_GRID| Information for grid number                                          4
 RS_GRID|   Bounds   1            -22      22                Points:          45
 RS_GRID|   Bounds   2            -32      31                Points:          64
 RS_GRID|   Bounds   3            -30      29                Points:          60
 RS_GRID| Real space fully replicated
 RS_GRID| Group size                                                           1

 CELL_OPT| Pressure tolerance [bar]:                                       100.0
 CELL_OPT| Keep angles between the cell vectors:                              NO
 CELL_OPT| Keep cell symmetry:                                                NO
 CELL_OPT| Constraint:                                                      NONE

 BFGS| Use rational function optimization for step estimation:                NO
 BFGS| Use model Hessian for initial guess:                                   NO
 BFGS| Restart Hessian:                                                       NO
 BFGS| Trust radius:                                                       0.472

 *******************************************************************************
 ***                     STARTING   CELL   OPTIMIZATION                      ***
 ***                                   BFGS                                  ***
 *******************************************************************************

 CELL| Volume [angstrom^3]:                                          3033.627759
 CELL| Vector a [angstrom]:      11.174     0.000     0.000   |a| =    11.174000
 CELL| Vector b [angstrom]:       0.000    16.826     0.000   |b| =    16.826000
 CELL| Vector c [angstrom]:      -0.166     0.000    16.135   |c| =    16.135996
 CELL| Angle (b,c), alpha [degree]:                                    90.000000
 CELL| Angle (a,c), beta  [degree]:                                    90.590012
 CELL| Angle (a,b), gamma [degree]:                                    90.000000
 CELL| Numerically orthorhombic:                                              NO
 CELL| Periodicity                                                           XYZ

 Number of electrons:                                                       1536
 Number of occupied orbitals:                                                768
 Number of molecular orbitals:                                               768

 Number of orbital functions:                                               4160
 Number of independent orbital functions:                                   4160

 Extrapolation method: initial_guess

 Atomic guess: The first density matrix is obtained in terms of atomic orbitals
               and electronic configurations assigned to each atomic kind

 Guess for atomic kind: Al

 Electronic structure
    Total number of core electrons                                         10.00
    Total number of valence electrons                                       3.00
    Total number of electrons                                              13.00
    Multiplicity                                                   not specified
    S   [  2.00  2.00] 2.00
    P   [  6.00] 1.00


 *******************************************************************************
                  Iteration          Convergence                     Energy [au]
 *******************************************************************************
                          1        0.305915E-01                  -1.859601069933
                          2        0.524000E-02                  -1.861110285590
                          3        0.579159E-05                  -1.861153364112
                          4        0.938920E-07                  -1.861153364138

 Energy components [Hartree]           Total Energy ::           -1.861153364138
                                        Band Energy ::           -0.553286143720
                                     Kinetic Energy ::            0.692453408885
                                   Potential Energy ::           -2.553606773023
                                      Virial (-V/T) ::            3.687766917250
                                        Core Energy ::           -2.745654507139
                                          XC Energy ::           -0.605922783649
                                     Coulomb Energy ::            1.490423926650
                       Total Pseudopotential Energy ::           -3.492083735852
                       Local Pseudopotential Energy ::           -3.961694608532
                    Nonlocal Pseudopotential Energy ::            0.469610872680
                                        Confinement ::            0.539758198286

 Orbital energies  State     L     Occupation   Energy[a.u.]          Energy[eV]

                       1     0          2.000      -0.248205           -6.754004

                       1     1          1.000      -0.056876           -1.547674


 Total Electron Density at R=0:                                         0.000121

 Guess for atomic kind: O

 Electronic structure
    Total number of core electrons                                          2.00
    Total number of valence electrons                                       6.00
    Total number of electrons                                               8.00
    Multiplicity                                                   not specified
    S   [  2.00] 2.00
    P      4.00


 *******************************************************************************
                  Iteration          Convergence                     Energy [au]
 *******************************************************************************
                          1        0.702811                     -15.577904332270
                          2        0.612408                     -15.588447180504
                          3        0.955344E-02                 -15.655871208406
                          4        0.223754E-02                 -15.655885053552
                          5        0.157183E-02                 -15.655885461027
                          6        0.124953E-02                 -15.655885607150
                          7        0.312011E-06                 -15.655885858066

 Energy components [Hartree]           Total Energy ::          -15.655885858066
                                        Band Energy ::           -2.983128125584
                                     Kinetic Energy ::           11.754765134683
                                   Potential Energy ::          -27.410650992749
                                      Virial (-V/T) ::            2.331875684345
                                        Core Energy ::          -26.153522949071
                                          XC Energy ::           -3.157392363346
                                     Coulomb Energy ::           13.655029454351
                       Total Pseudopotential Energy ::          -37.943026860963
                       Local Pseudopotential Energy ::          -39.220419683052
                    Nonlocal Pseudopotential Energy ::            1.277392822089
                                        Confinement ::            0.347387772086

 Orbital energies  State     L     Occupation   Energy[a.u.]          Energy[eV]

                       1     0          2.000      -0.861522          -23.443215

                       1     1          4.000      -0.315021           -8.572154


 Total Electron Density at R=0:                                         0.000093
 Re-scaling the density matrix to get the right number of electrons
                  # Electrons              Trace(P)               Scaling factor
                         1536              1536.000                        1.000


 SCF WAVEFUNCTION OPTIMIZATION

  ----------------------------------- OT ---------------------------------------
  Minimizer      : CG                  : conjugate gradient
  Preconditioner : FULL_KINETIC        : inversion of T + eS
  Precond_solver : DEFAULT
  Line search    : 2PNT                : 2 energies, one gradient
  stepsize       :    0.15000000                  energy_gap     :    0.20000000
  eps_taylor     :   0.10000E-15                  max_taylor     :             4
  ----------------------------------- OT ---------------------------------------

  Step     Update method      Time    Convergence         Total energy    Change
  ------------------------------------------------------------------------------
     1 OT CG       0.15E+00    4.6     0.00779502     -3280.6090299297 -3.28E+03
     2 OT LS       0.46E+00    3.1                    -3305.0066296333
     3 OT CG       0.46E+00    6.2     0.00601143     -3323.0820238468 -4.25E+01
     4 OT LS       0.22E+00    3.1                    -3319.5088631238
     5 OT CG       0.22E+00    6.2     0.00600529     -3332.4567717089 -9.37E+00
     6 OT LS       0.22E+00    3.1                    -3343.9383169536
     7 OT CG       0.22E+00    6.3     0.00352469     -3343.9379332796 -1.15E+01
     8 OT LS       0.44E+00    3.1                    -3350.4333171186
     9 OT CG       0.44E+00    6.2     0.00258730     -3352.8081920087 -8.87E+00
    10 OT LS       0.45E+00    3.1                    -3357.7092845195
    11 OT CG       0.45E+00    6.2     0.00220226     -3357.7132462941 -4.91E+00
    12 OT LS       0.44E+00    3.1                    -3361.1785153231
    13 OT CG       0.44E+00    6.5     0.00177947     -3361.1788323889 -3.47E+00
    14 OT LS       0.45E+00    3.3                    -3363.4378026751
    15 OT CG       0.45E+00    6.3     0.00134827     -3363.4380261486 -2.26E+00
    16 OT LS       0.45E+00    3.1                    -3364.7322666877
    17 OT CG       0.45E+00    6.2     0.00102382     -3364.7323004919 -1.29E+00
    18 OT LS       0.60E+00    3.1                    -3365.6683214646
    19 OT CG       0.60E+00    6.1     0.00084694     -3365.7275790122 -9.95E-01
    20 OT LS       0.53E+00    3.1                    -3366.3183712038
    21 OT CG       0.53E+00    6.2     0.00063503     -3366.3285931554 -6.01E-01
    22 OT LS       0.59E+00    3.1                    -3366.7034761536
    23 OT CG       0.59E+00    6.1     0.00051845     -3366.7065647856 -3.78E-01
    24 OT LS       0.55E+00    3.1                    -3366.9382946292
    25 OT CG       0.55E+00    6.2     0.00041165     -3366.9400325407 -2.33E-01
    26 OT LS       0.59E+00    3.1                    -3367.0984537366
    27 OT CG       0.59E+00    6.4     0.00033268     -3367.0992042129 -1.59E-01
    28 OT LS       0.56E+00    3.2                    -3367.1972909526
    29 OT CG       0.56E+00    6.2     0.00026509     -3367.1976404996 -9.84E-02
    30 OT LS       0.57E+00    3.1                    -3367.2614356323
    31 OT CG       0.57E+00    6.2     0.00020754     -3367.2614467641 -6.38E-02
    32 OT LS       0.56E+00    3.1                    -3367.3002322396
    33 OT CG       0.56E+00    6.2     0.00015786     -3367.3002354872 -3.88E-02
    34 OT LS       0.57E+00    3.1                    -3367.3229624019
    35 OT CG       0.57E+00    6.2     0.00012712     -3367.3229656782 -2.27E-02
    36 OT LS       0.56E+00    3.1                    -3367.3374737923
    37 OT CG       0.56E+00    6.4     0.00010339     -3367.3374773524 -1.45E-02
    38 OT LS       0.57E+00    3.1                    -3367.3472612283
    39 OT CG       0.57E+00    6.2     0.00008604     -3367.3472647613 -9.79E-03
    40 OT LS       0.56E+00    3.4                    -3367.3538958631
    41 OT CG       0.56E+00    6.2     0.00007181     -3367.3538991313 -6.63E-03
    42 OT LS       0.59E+00    3.1                    -3367.3587501821
    43 OT CG       0.59E+00    6.2     0.00006220     -3367.3587619441 -4.86E-03
    44 OT LS       0.60E+00    3.1                    -3367.3624540927
    45 OT CG       0.60E+00    6.2     0.00005395     -3367.3624546117 -3.69E-03
    46 OT LS       0.60E+00    3.1                    -3367.3652251076
    47 OT CG       0.60E+00    6.2     0.00004687     -3367.3652251305 -2.77E-03
    48 OT LS       0.61E+00    3.2                    -3367.3673778912
    49 OT CG       0.61E+00    6.1     0.00004186     -3367.3673797404 -2.15E-03
    50 OT LS       0.61E+00    3.1                    -3367.3690769259
    51 OT CG       0.61E+00    6.2     0.00003689     -3367.3690772064 -1.70E-03
    52 OT LS       0.61E+00    3.1                    -3367.3704028325
    53 OT CG       0.61E+00    6.5     0.00003263     -3367.3704028710 -1.33E-03
    54 OT LS       0.62E+00    3.1                    -3367.3714492527
    55 OT CG       0.62E+00    6.3     0.00002915     -3367.3714493283 -1.05E-03
    56 OT LS       0.62E+00    3.1                    -3367.3722900722
    57 OT CG       0.62E+00    6.2     0.00002617     -3367.3722901142 -8.41E-04
    58 OT LS       0.61E+00    3.1                    -3367.3729606521
    59 OT CG       0.61E+00    6.2     0.00002353     -3367.3729607321 -6.71E-04
    60 OT LS       0.63E+00    3.1                    -3367.3735178409
    61 OT CG       0.63E+00    6.2     0.00002150     -3367.3735182447 -5.58E-04
    62 OT LS       0.62E+00    3.1                    -3367.3739776710
    63 OT CG       0.62E+00    6.2     0.00001978     -3367.3739777427 -4.59E-04
    64 OT LS       0.63E+00    3.1                    -3367.3743727446
[...]
    292       O      2       6.000          6.479                        -0.479
    293       O      2       6.000          6.467                        -0.467
    294       O      2       6.000          6.471                        -0.471
    295       Al     1       3.000          2.288                         0.712
    296       Al     1       3.000          2.288                         0.712
    297       Al     1       3.000          2.354                         0.646
    298       Al     1       3.000          2.300                         0.700
    299       Al     1       3.000          2.334                         0.666
    300       Al     1       3.000          2.334                         0.666
    301       Al     1       3.000          2.334                         0.666
    302       Al     1       3.000          2.313                         0.687
    303       Al     1       3.000          2.313                         0.687
    304       Al     1       3.000          2.313                         0.687
    305       O      2       6.000          6.428                        -0.428
    306       O      2       6.000          6.435                        -0.435
    307       O      2       6.000          6.430                        -0.430
    308       O      2       6.000          6.432                        -0.432
    309       O      2       6.000          6.459                        -0.459
    310       O      2       6.000          6.459                        -0.459
    311       O      2       6.000          6.459                        -0.459
    312       O      2       6.000          6.479                        -0.479
    313       O      2       6.000          6.479                        -0.479
    314       O      2       6.000          6.479                        -0.479
    315       O      2       6.000          6.467                        -0.467
    316       O      2       6.000          6.467                        -0.467
    317       O      2       6.000          6.467                        -0.467
    318       O      2       6.000          6.471                        -0.471
    319       O      2       6.000          6.471                        -0.471
    320       O      2       6.000          6.471                        -0.471

  Total Charge                                                           -0.000
 !-----------------------------------------------------------------------------!

 ENERGY| Total FORCE_EVAL ( QS ) energy [a.u.]:            -3367.418247294818684

 -------------------------------------------------------------------------------
 -                                                                             -
 -                                DBCSR STATISTICS                             -
 -                                                                             -
 -------------------------------------------------------------------------------
 COUNTER                                    TOTAL       BLAS       SMM       ACC
 flops    13 x    32 x    32           6952058880       0.0%    100.0%      0.0%
 flops  1027 x    64 x   338        1049309134848       0.0%    100.0%      0.0%
 flops  1053 x    64 x   338        1075873923072       0.0%    100.0%      0.0%
 flops   192 x    64 x    64        1900724355072       0.0%    100.0%      0.0%
 flops  1040 x    64 x   338        2125183057920       0.0%    100.0%      0.0%
 flops  1027 x    64 x   351        2179334356992       0.0%    100.0%      0.0%
 flops  1053 x    64 x   351        2234507378688       0.0%    100.0%      0.0%
 flops   192 x    64 x   338        3545427345408       0.0%    100.0%      0.0%
 flops  1027 x    64 x    64        3721723379712       0.0%    100.0%      0.0%
 flops  1053 x    64 x    64        3815944224768       0.0%    100.0%      0.0%
 flops  1040 x    64 x   351        4413841735680       0.0%    100.0%      0.0%
 flops   192 x    64 x   351        7363579871232       0.0%    100.0%      0.0%
 flops  1040 x    64 x    64        7537667604480       0.0%    100.0%      0.0%
 flops    13 x    13 x    64       11718369361920       0.0%    100.0%      0.0%
 flops    13 x    32 x    13       36801759461376       0.0%    100.0%      0.0%
 flops inhomo. stacks                           0       0.0%      0.0%      0.0%
 flops total                        89.490197E+12       0.0%    100.0%      0.0%
 flops max/rank                      1.898525E+12       0.0%    100.0%      0.0%
 matmuls inhomo. stacks                         0       0.0%      0.0%      0.0%
 matmuls total                         3949046976       0.0%    100.0%      0.0%
 number of processed stacks               9466692       0.0%    100.0%      0.0%
 average stack size                                     0.0     417.2       0.0
 marketing flops                   104.002339E+12
 -------------------------------------------------------------------------------
 # multiplications                          10312
 max memory usage/rank             752.558080E+06
 # max total images/rank                        3
 # max 3D layers                                1
 # MPI messages exchanged                 9899520
 MPI messages size (bytes):
  total size                         5.185026E+12
  min size                           0.000000E+00
  max size                           2.956824E+06
  average size                     523.765375E+03
 MPI breakdown and total messages size (bytes):
             size <=      128               46104                        0
       128 < size <=     8192                   0                        0
      8192 < size <=    32768             2234664              73205415936
     32768 < size <=   131072             1107744             108895666176
    131072 < size <=  4194304             6511008            5002535353088
   4194304 < size <= 16777216                   0                        0
  16777216 < size                               0                        0
 -------------------------------------------------------------------------------

 *** WARNING in dbcsr_mm.F:290 :: Using a non-square number of MPI ranks ***
 *** might lead to poor performance. Used ranks: 48 Suggested: 49 100    ***

 -------------------------------------------------------------------------------
 -                                                                             -
 -                      DBCSR MESSAGE PASSING PERFORMANCE                      -
 -                                                                             -
 -------------------------------------------------------------------------------
 ROUTINE             CALLS      AVE VOLUME [Bytes]
 MP_Bcast               16                     12.
 MP_Allreduce        52550                     31.
 MP_Alltoall         35128                  62964.
 MP_ISend           476676                 235297.
 MP_IRecv           476676                 235430.
 -------------------------------------------------------------------------------

 -------------------------------------------------------------------------------
 -                                                                             -
 -                                DBM STATISTICS                               -
 -                                                                             -
 -------------------------------------------------------------------------------
    M  x    N  x    K                                          COUNT     PERCENT
 -------------------------------------------------------------------------------

 -------------------------------------------------------------------------------
 -                                                                             -
 -                                GRID STATISTICS                              -
 -                                                                             -
 -------------------------------------------------------------------------------
 LP    KERNEL             BACKEND                              COUNT     PERCENT
 4     collocate general  CPU                              511936224      64.98%
 4     integrate general  CPU                              255968112      32.49%
 7     integrate general  CPU                               17956048       2.28%
 0     collocate general  CPU                                1013760       0.13%
 0     integrate general  CPU                                 506880       0.06%
 3     integrate general  CPU                                 491520       0.06%
 -------------------------------------------------------------------------------

 MEMORY| Estimated peak process memory [MiB]                                 718

 -------------------------------------------------------------------------------
 ----                             MULTIGRID INFO                            ----
 -------------------------------------------------------------------------------
 count for grid        1:         188992          cutoff [a.u.]          500.00
 count for grid        2:         269536          cutoff [a.u.]          166.67
 count for grid        3:         607520          cutoff [a.u.]           55.56
 count for grid        4:         455456          cutoff [a.u.]           18.52
 total gridlevel count  :        1521504

 -------------------------------------------------------------------------------
 -                                                                             -
 -                         MESSAGE PASSING PERFORMANCE                         -
 -                                                                             -
 -------------------------------------------------------------------------------

 ROUTINE             CALLS      AVE VOLUME [Bytes]
 MP_Group              128
 MP_Bcast            16258                  23956.
 MP_Allreduce        45806                   1787.
 MP_Sync               359
 MP_Alltoall         15079               16686496.
 MP_SendRecv         86104                 108672.
 MP_ISendRecv        46060                 108672.
 MP_Wait            212143
 MP_comm_split         231
 MP_ISend           155848                 335113.
 MP_IRecv           155848                 337051.
 -------------------------------------------------------------------------------


 -------------------------------------------------------------------------------
 -                                                                             -
 -                           R E F E R E N C E S                               -
 -                                                                             -
 -------------------------------------------------------------------------------
 
 CP2K version 2023.1 (Development Version), the CP2K developers group (2023).
 CP2K is freely available from https://www.cp2k.org/ .

 Kuehne,Thomas D.; Iannuzzi,Marcella; Del Ben,Mauro;
 Rybkin,Vladimir V.; Seewald,Patrick; Stein,Frederick; Laino,Teodoro;
 Khaliullin,Rustam Z.; Schuett,Ole; Schiffmann,Florian; Golze,Dorothea;
 Wilhelm,Jan; Chulkov,Sergey; Bani-Hashemian,Mohammad Hossein;
 Weber,Valery; Borstnik,Urban; Taillefumier,Mathieu;
 Jakobovits,Alice Shoshana; Lazzaro,Alfio; Pabst,Hans; Mueller,Tiziano;
 Schade,Robert; Guidon,Manuel; Andermatt,Samuel; Holmberg,Nico;
 Schenter,Gregory K.; Hehn,Anna; Bussy,Augustin; Belleflamme,Fabian;
 Tabacchi,Gloria; Gloess,Andreas; Lass,Michael; Bethune,Iain;
 Mundy,Christopher J.; Plessl,Christian; Watkins,Matt;
 VandeVondele,Joost; Krack,Matthias; Hutter,Juerg. 
 The Journal of Chemical Physics, 152 (19), (2020). 
 CP2K: An electronic structure and molecular dynamics software package -
 Quickstep: Efficient and accurate electronic structure calculations.
 https://doi.org/10.1063/5.0007045

 Schuett, Ole; Messmer, Peter; Hutter, Juerg; VandeVondele, Joost. 
 Electronic Structure Calculations on Graphics Processing Units, John
 Wiley & Sons, Ltd, 173-190 (2016). 
 GPU-Accelerated Sparse Matrix-Matrix Multiplication for
 Linear Scaling Density Functional Theory.
 https://doi.org/10.1002/9781118670712.ch8

 Heinecke, A; Henry, G; Hutchinson, M; Pabst, H. 
 Proceedings of Intl. Supercomputing Conference, 981-991 (2016). 
 LIBXSMM: Accelerating Small Matrix Multiplications
 by Runtime Code Generation.
 https://doi.org/10.1109/SC.2016.83

 Borstnik, U; VandeVondele, J; Weber, V; Hutter, J. 
 PARALLEL COMPUTING, 40 (5-6), 47-58 (2014). 
 Sparse matrix multiplication: The distributed block-compressed sparse
 row library.
 https://doi.org/10.1016/j.parco.2014.03.012

 Hutter, J; Iannuzzi, M; Schiffmann, F; VandeVondele, J. 
 WIREs Comput Mol Sci., 4 (1), 15-25 (2014). 
 CP2K: atomistic simulations of condensed matter systems.
 https://doi.org/10.1002/wcms.1159

 VandeVondele, J; Hutter, J. 
 JOURNAL OF CHEMICAL PHYSICS, 127 (11), 114105 (2007). 
 Gaussian basis sets for accurate calculations on molecular systems in
 gas and condensed phases.
 https://doi.org/10.1063/1.2770708

 Grimme, S. 
 JOURNAL OF COMPUTATIONAL CHEMISTRY, 27 (15), 1787-1799 (2006). 
 Semiempirical GGA-type density functional constructed with a long-range
 dispersion correction.
 https://doi.org/10.1002/jcc.20495

 Krack, M. 
 THEORETICAL CHEMISTRY ACCOUNTS, 114 (1-3), 145-152 (2005). 
 Pseudopotentials for H to Kr optimized for gradient-corrected
 exchange-correlation functionals.
 https://doi.org/10.1007/s00214-005-0655-y

 VandeVondele, J; Krack, M; Mohamed, F; Parrinello, M; Chassaing, T;
 Hutter, J. COMPUTER PHYSICS COMMUNICATIONS, 167 (2), 103-128 (2005). 
 QUICKSTEP: Fast and accurate density functional calculations using a
 mixed Gaussian and plane waves approach.
 https://doi.org/10.1016/j.cpc.2004.12.014

 Frigo, M; Johnson, SG. 
 PROCEEDINGS OF THE IEEE, 93 (2), 216-231 (2005). 
 The design and implementation of FFTW3.
 https://doi.org/10.1109/JPROC.2004.840301

 VandeVondele, J; Hutter, J. 
 JOURNAL OF CHEMICAL PHYSICS, 118 (10), 4365-4369 (2003). 
 An efficient orbital transformation method for electronic structure
 calculations.
 https://doi.org/10.1063/1.1543154

 Hartwigsen, C; Goedecker, S; Hutter, J. 
 PHYSICAL REVIEW B, 58 (7), 3641-3662 (1998). 
 Relativistic separable dual-space Gaussian pseudopotentials from H to Rn.
 https://doi.org/10.1103/PhysRevB.58.3641

 Lippert, G; Hutter, J; Parrinello, M. 
 MOLECULAR PHYSICS, 92 (3), 477-487 (1997). 
 A hybrid Gaussian and plane wave density functional scheme.
 https://doi.org/10.1080/002689797170220

 Perdew, JP; Burke, K; Ernzerhof, M. 
 PHYSICAL REVIEW LETTERS, 77 (18), 3865-3868 (1996). 
 Generalized gradient approximation made simple.
 https://doi.org/10.1103/PhysRevLett.77.3865

 Goedecker, S; Teter, M; Hutter, J. 
 PHYSICAL REVIEW B, 54 (3), 1703-1710 (1996). 
 Separable dual-space Gaussian pseudopotentials.
 https://doi.org/10.1103/PhysRevB.54.1703


 -------------------------------------------------------------------------------
 -                                                                             -
 -                                T I M I N G                                  -
 -                                                                             -
 -------------------------------------------------------------------------------
 SUBROUTINE                       CALLS  ASD         SELF TIME        TOTAL TIME
                                MAXIMUM       AVERAGE  MAXIMUM  AVERAGE  MAXIMUM
 CP2K                                 1  1.0    0.045    0.052 4602.927 4602.932
 cp_cell_opt                          1  2.0    0.000    0.000 4602.480 4602.485
 geoopt_bfgs                          1  3.0    0.009    0.013 4602.479 4602.484
 cp_eval_at                          33  4.0    0.007    0.009 4598.259 4598.589
 qs_forces                           32  5.0    0.013    0.013 4587.664 4587.669
 qs_energies                         33  6.0    0.003    0.004 4328.842 4329.194
 scf_env_do_scf                      33  7.0    0.002    0.004 4206.222 4206.227
 scf_env_do_scf_inner_loop          883  8.0    0.021    0.114 4068.909 4070.174
 rebuild_ks_matrix                  915  9.9    0.003    0.004 2149.984 2150.291
 qs_ks_build_kohn_sham_matrix       915 10.9    0.101    0.106 2149.980 2150.288
 qs_rho_update_rho_low              916  9.0    0.004    0.005 2095.833 2096.857
 calculate_rho_elec                 916 10.0    2.865    3.241 2095.829 2096.853
 qs_ks_update_qs_env                917  9.0    0.006    0.006 1935.488 1935.766
 grid_collocate_task_list           916 11.0 1689.255 1706.567 1689.255 1706.567
 sum_up_and_integrate               490 11.8    4.160    4.717 1139.077 1139.153
 integrate_v_rspace                 490 12.8    0.017    0.020 1134.916 1135.460
 pw_transfer                      13598 13.8    0.819    0.873  953.706  965.438
 grid_integrate_task_list           490 13.8  955.720  964.399  955.720  964.399
 fft_wrap_pw1pw2                  11768 15.0    0.125    0.134  940.216  951.956
 fft_wrap_pw1pw2_500               7550 16.5  190.377  196.833  903.779  914.822
 qs_vxc_create                      915 11.9    0.016    0.017  858.955  860.341
 fft3d_ps                         11768 17.0  307.114  317.209  596.986  613.645
 xc_pw_derive                      4215 14.9    0.055    0.061  590.286  604.495
 xc_vxc_pw_create                   490 12.8   20.523   22.995  602.318  603.698
 xc_rho_set_and_dset_create         915 13.9   11.043   12.443  539.726  558.117
 density_rs2pw                      916 11.0    0.050    0.054  387.489  422.298
 xc_pw_divergence                   490 13.8    0.021    0.025  278.606  291.211
 rs_pw_transfer                    5755 12.9    0.075    0.080  229.438  263.066
 dbcsr_multiply_generic           10312 13.6    0.611    0.627  260.326  260.719
 xc_exc_calc                        425 13.0    1.199    1.338  256.621  256.641
 qs_scf_new_mos                     883  9.0    0.005    0.006  235.247  235.804
 qs_scf_loop_do_ot                  883 10.0    0.007    0.007  235.243  235.800
 mp_alltoall_z22v                 11768 19.0  192.624  234.649  192.624  234.649
 qs_ks_update_qs_env_forces          32  6.0    0.000    0.000  217.196  217.236
 multiply_cannon                  10312 14.6    0.805    0.857  212.118  213.789
 ot_scf_mini                        883 11.0    0.021    0.023  210.042  210.337
 multiply_cannon_loop             10312 15.6    0.975    1.021  203.062  207.369
 x_to_yz                           5621 18.6   64.312   74.635  164.506  167.696
 xc_functional_eval                 915 14.9    0.009    0.010  137.156  153.252
 pbe_lda_eval                       915 15.9  137.147  153.242  137.147  153.242
 potential_pw2rs                    490 13.8    0.206    0.257  151.582  152.183
 yz_to_x                           4741 17.5   31.595   36.568  123.744  148.482
 mp_waitall_1                    881255 17.7  144.109  147.703  144.109  147.703
 mp_waitany                      155848 14.9  110.153  146.055  110.153  146.055
 rs_pw_transfer_RS2PW_500           982 12.9   34.705   36.571  103.947  137.161
 init_scf_loop                       34  8.0    0.001    0.001  135.873  135.891
 multiply_cannon_metrocomm3      123744 16.6    0.391    0.411  125.794  128.661
 pw_scatter_p                      6111 17.6   92.038   93.385   92.038   93.385
 -------------------------------------------------------------------------------

 The number of warnings for this run is : 1
 
 -------------------------------------------------------------------------------
  **** **** ******  **  PROGRAM ENDED AT                 2024-11-07 17:14:50.137
 ***** ** ***  *** **   PROGRAM RAN ON                                      c665
 **    ****   ******    PROGRAM RAN BY                                  dprasad8
 ***** **    ** ** **   PROGRAM PROCESS ID                               1056915
  **** **  *******  **  PROGRAM STOPPED IN /scratch4/nmitra1/alumina_cp2k/cellop
                                           t_dftd2/222
