     320
 i =        1, E =     -3367.3978809422
 Al         2.0862830189        6.2945135281        1.0145945968
 Al         4.7850984467        2.0981711442        4.0112485263
 Al         4.8522404172        6.2945135241        1.0068129323
 Al         3.3586601093        6.2945138440        5.9980620088
 Al         1.9897141391        0.6301112181        4.9281465025
 Al         0.5753912782        4.8576161243        6.9385921180
  O         4.8271408961        6.2945134997        7.0367403924
  O         3.3596745901        2.0981713171        5.1520271252
  O         1.9486170567        6.2945135022        7.1578271264
  O         0.6839406908        2.0981713994        5.0465737495
  O         4.8675047035        3.4060942584        7.2361953017
  O         3.3134509386        7.6986309491        4.9409618274
  O         1.9146517572        3.4068788193        6.8661486284
  O         0.7136888711        7.6897976058        5.1270712009
 Al         3.3904110942        2.0981711941        7.0344031743
 Al         0.6915970622        6.2945138456        4.0377493876
 Al         0.6244557027        2.0981712029        7.0421925526
 Al         2.1180346403        2.0981711581        2.0509355218
 Al         3.4869883500        4.8264454554        3.1208508934
 Al         3.4869882063        7.7625816944        3.1208512392
 Al         1.9897140788        3.5662395326        4.9281465589
 Al         4.9013040153        0.6612734654        1.1104044583
 Al         4.9013039937        3.5350688826        1.1104044548
 Al         0.5753913413        7.7314110806        6.9385918117
  O         0.6495614000        2.0981711994        1.0122561692
  O         2.1170208120        6.2945134697        2.8969775026
  O         3.5280783341        2.0981711979        0.8911698075
  O         4.7927539604        6.2945134742        3.0024231225
  O         0.6091978399        7.6024366107        0.8128022536
  O         0.6091978467        4.9865904121        0.8128022521
  O         4.8675047113        0.7902482281        7.2361953475
  O         2.1632445859        3.5022882466        3.1080350748
  O         2.1632445847        0.6940543471        3.1080349350
  O         3.3134511570        4.8903963445        4.9409618457
  O         3.5620434098        7.6032213222        1.1828485669
  O         3.5620434319        4.9858057042        1.1828485703
  O         1.9146517918        0.7894638436        6.8661487094
  O         4.7630147858        3.4934550816        2.9219257241
  O         4.7630148065        0.7028873453        2.9219256640
  O         0.7136886195        4.8992297587        5.1270712045
 Al         7.6440311238        6.2945135272        1.0145945917
 Al        10.3428465501        2.0981711437        4.0112485250
 Al        10.4099885204        6.2945135191        1.0068129303
 Al         8.9164082167        6.2945138441        5.9980620129
 Al         7.5474622377        0.6301112112        4.9281464979
 Al         6.1331393783        4.8576161221        6.9385921230
  O        10.3848889969        6.2945134954        7.0367403924
  O         8.9174226959        2.0981713185        5.1520271260
  O         7.5063651593        6.2945135031        7.1578271255
  O         6.2416887933        2.0981714015        5.0465737519
  O        10.4252528047        3.4060942599        7.2361953014
  O         8.8711990420        7.6986309484        4.9409618305
  O         7.4723998632        3.4068788199        6.8661486274
  O         6.2714369750        7.6897976076        5.1270711993
 Al         8.9481591879        2.0981711924        7.0344031703
 Al         6.2493451668        6.2945138450        4.0377493907
 Al         6.1822038025        2.0981712043        7.0421925548
 Al         7.6757827414        2.0981711533        2.0509355191
 Al         9.0447364567        4.8264454595        3.1208508926
 Al         9.0447363111        7.7625816969        3.1208512358
 Al         7.5474621821        3.5662395319        4.9281465586
 Al        10.4590521162        0.6612734644        1.1104044532
 Al        10.4590520959        3.5350688807        1.1104044498
 Al         6.1331394413        7.7314110769        6.9385918170
  O         6.2073095047        2.0981712014        1.0122561695
  O         7.6747689150        6.2945134702        2.8969775044
  O         9.0858264359        2.0981712006        0.8911698077
  O        10.3505020616        6.2945134742        3.0024231234
  O         6.1669459411        7.6024366109        0.8128022534
  O         6.1669459509        4.9865904085        0.8128022536
  O        10.4252528117        0.7902482267        7.2361953469
  O         7.7209926867        3.5022882463        3.1080350709
  O         7.7209926886        0.6940543460        3.1080349365
  O         8.8711992619        4.8903963457        4.9409618457
  O         9.1197915116        7.6032213238        1.1828485670
  O         9.1197915333        4.9858057032        1.1828485714
  O         7.4723998974        0.7894638440        6.8661487085
  O        10.3207628852        3.4934550825        2.9219257238
  O        10.3207629124        0.7028873442        2.9219256636
  O         6.2714367246        4.8992297608        5.1270712010
 Al         2.0862829770       14.6871982179        1.0145945974
 Al         4.7850984023       10.4908558311        4.0112485317
 Al         4.8522403789       14.6871982101        1.0068129346
 Al         3.3586600653       14.6871985287        5.9980620120
 Al         1.9897140976        9.0227959016        4.9281465036
 Al         0.5753912300       13.2503008081        6.9385921201
  O         4.8271408493       14.6871981845        7.0367403894
  O         3.3596745465       10.4908560049        5.1520271254
  O         1.9486170111       14.6871981905        7.1578271247
  O         0.6839406481       10.4908560853        5.0465737511
  O         4.8675046587       11.7987789460        7.2361953002
  O         3.3134508968       16.0913156357        4.9409618278
  O         1.9146517124       11.7995635056        6.8661486280
  O         0.7136888272       16.0824822920        5.1270712018
 Al         3.3904110464       10.4908558815        7.0344031775
 Al         0.6915970189       14.6871985291        4.0377493902
 Al         0.6244556574       10.4908558926        7.0421925541
 Al         2.1180345950       10.4908558443        2.0509355250
 Al         3.4869883072       13.2191301425        3.1208508941
 Al         3.4869881624       16.1552663808        3.1208512370
 Al         1.9897140334       11.9589242210        4.9281465609
 Al         4.9013039734        9.0539581473        1.1104044501
 Al         4.9013039531       11.9277535703        1.1104044524
 Al         0.5753912933       16.1240957615        6.9385918141
  O         0.6495613557       10.4908558859        1.0122561674
  O         2.1170207672       14.6871981597        2.8969775044
  O         3.5280782881       10.4908558854        0.8911698111
  O         4.7927539143       14.6871981606        3.0024231251
  O         0.6091977935       15.9951212951        0.8128022507
  O         0.6091978030       13.3792750964        0.8128022544
  O         4.8675046666        9.1829329112        7.2361953496
  O         2.1632445418       11.8949729339        3.1080350740
  O         2.1632445397        9.0867390320        3.1080349349
  O         3.3134511135       13.2830810316        4.9409618444
  O         3.5620433636       15.9959060104        1.1828485676
  O         3.5620433848       13.3784903901        1.1828485688
  O         1.9146517452        9.1821485285        6.8661487088
  O         4.7630147401       11.8861397688        2.9219257223
  O         4.7630147633        9.0955720312        2.9219256624
  O         0.7136885758       13.2919144477        5.1270712025
 Al         7.6440310838       14.6871982168        1.0145945961
 Al        10.3428465035       10.4908558304        4.0112485317
 Al        10.4099884765       14.6871982093        1.0068129270
 Al         8.9164081690       14.6871985280        5.9980620097
 Al         7.5474622001        9.0227959030        4.9281464979
 Al         6.1331393351       13.2503008087        6.9385921242
  O        10.3848889546       14.6871981848        7.0367403932
  O         8.9174226499       10.4908560024        5.1520271249
  O         7.5063651158       14.6871981885        7.1578271242
  O         6.2416887498       10.4908560856        5.0465737526
  O        10.4252527631       11.7987789446        7.2361953007
  O         8.8711990000       16.0913156362        4.9409618279
  O         7.4723998148       11.7995635050        6.8661486276
  O         6.2714369315       16.0824822943        5.1270711998
 Al         8.9481591461       10.4908558845        7.0344031743
 Al         6.2493451258       14.6871985300        4.0377493931
 Al         6.1822037597       10.4908558948        7.0421925564
 Al         7.6757826945       10.4908558399        2.0509355226
 Al         9.0447364072       13.2191301466        3.1208508987
 Al         9.0447362607       16.1552663858        3.1208512400
 Al         7.5474621388       11.9589242215        4.9281465610
 Al        10.4590520721        9.0539581482        1.1104044520
 Al        10.4590520482       11.9277535673        1.1104044472
 Al         6.1331393968       16.1240957616        6.9385918158
  O         6.2073094597       10.4908558862        1.0122561696
  O         7.6747688681       14.6871981574        2.8969775034
  O         9.0858263928       10.4908558871        0.8911698087
  O        10.3505020203       14.6871981601        3.0024231239
  O         6.1669458957       15.9951212948        0.8128022504
  O         6.1669459033       13.3792750963        0.8128022540
  O        10.4252527676        9.1829329137        7.2361953488
  O         7.7209926418       11.8949729353        3.1080350717
  O         7.7209926426        9.0867390324        3.1080349337
  O         8.8711992183       13.2830810327        4.9409618440
  O         9.1197914672       15.9959060099        1.1828485680
  O         9.1197914891       13.3784903891        1.1828485691
  O         7.4723998502        9.1821485275        6.8661487100
  O        10.3207628414       11.8861397688        2.9219257228
  O        10.3207628671        9.0955720326        2.9219256630
  O         6.2714366783       13.2919144474        5.1270712017
 Al         2.0052293567        6.2945135823        9.0635915431
 Al         4.7040447876        2.0981711967       12.0602454781
 Al         4.7711867595        6.2945135861        9.0558098731
 Al         3.2776064454        6.2945139023       14.0470589541
 Al         1.9086604783        0.6301112704       12.9771434492
 Al         0.4943376157        4.8576161735       14.9875890725
  O         4.7460872348        6.2945135559       15.0857373315
  O         3.2786209303        2.0981713775       13.2010240718
  O         1.8675633963        6.2945135587       15.2068240676
  O         0.6028870306        2.0981714589       13.0955706958
  O         4.7864510403        3.4060943171       15.2851922433
  O         3.2323972776        7.6986310047       12.9899587720
  O         1.8335980965        3.4068788724       14.9151455700
  O         0.6326352114        7.6897976631       13.1760681446
 Al         3.3093574247        2.0981712490       15.0834001201
 Al         0.6105433993        6.2945139024       12.0867463326
 Al         0.5434020384        2.0981712527       15.0911895029
 Al         2.0369809782        2.0981712184       10.0999324664
 Al         3.4059346942        4.8264455182       11.1698478328
 Al         3.4059345457        7.7625817523       11.1698481866
 Al         1.9086604191        3.5662395902       12.9771435053
 Al         4.8202503509        0.6612735201        9.1594014054
 Al         4.8202503371        3.5350689408        9.1594013886
 Al         0.4943376787        7.7314111336       14.9875887527
  O         0.5685077404        2.0981712584        9.0612531146
  O         2.0359671504        6.2945135285       10.9459744460
  O         3.4470246729        2.0981712567        8.9401667551
  O         4.7117002995        6.2945135275       11.0514200693
  O         0.5281441779        7.6024366637        8.8617991969
  O         0.5281441883        4.9865904680        8.8617991980
  O         4.7864510501        0.7902482856       15.2851922944
  O         2.0821909240        3.5022883042       11.1570320196
  O         2.0821909261        0.6940544017       11.1570318785
  O         3.2323974988        4.8903964023       12.9899587892
  O         3.4809897467        7.6032213785        9.2318455110
  O         3.4809897693        4.9858057570        9.2318455135
  O         1.8335981333        0.7894639019       14.9151456527
  O         4.6819611239        3.4934551403       10.9709226680
  O         4.6819611453        0.7028874032       10.9709226078
  O         0.6326349571        4.8992298169       13.1760681453
 Al         7.5629774606        6.2945135838        9.0635915408
 Al        10.2617928900        2.0981711977       12.0602454790
 Al        10.3289348616        6.2945135858        9.0558098691
 Al         8.8353545532        6.2945139014       14.0470589592
 Al         7.4664085828        0.6301112707       12.9771434491
 Al         6.0520857238        4.8576161780       14.9875890744
  O        10.3038353366        6.2945135577       15.0857373360
  O         8.8363690344        2.0981713763       13.2010240690
  O         7.4253115002        6.2945135600       15.2068240670
  O         6.1606351327        2.0981714582       13.0955706960
  O        10.3441991447        3.4060943181       15.2851922412
  O         8.7901453818        7.6986310060       12.9899587705
  O         7.3913462000        3.4068788744       14.9151455692
  O         6.1903833143        7.6897976626       13.1760681438
 Al         8.8671055258        2.0981712487       15.0834001224
 Al         6.1682915048        6.2945139030       12.0867463356
 Al         6.1011501461        2.0981712533       15.0911895034
 Al         7.5947290772        2.0981712185       10.0999324644
 Al         8.9636827968        4.8264455188       11.1698478350
 Al         8.9636826466        7.7625817526       11.1698481872
 Al         7.4664085214        3.5662395889       12.9771435051
 Al        10.3779984563        0.6612735199        9.1594014071
 Al        10.3779984404        3.5350689396        9.1594013873
 Al         6.0520857867        7.7314111345       14.9875887562
  O         6.1262558432        2.0981712584        9.0612531160
  O         7.5937152548        6.2945135272       10.9459744473
  O         9.0047727765        2.0981712576        8.9401667547
  O        10.2694484040        6.2945135293       11.0514200691
  O         6.0858922836        7.6024366661        8.8617991948
  O         6.0858922889        4.9865904679        8.8617991981
  O        10.3441991538        0.7902482860       15.2851922959
  O         7.6399390271        3.5022883048       11.1570320178
  O         7.6399390269        0.6940544032       11.1570318798
  O         8.7901456014        4.8903964017       12.9899587885
  O         9.0387378509        7.6032213767        9.2318455117
  O         9.0387378738        4.9858057575        9.2318455135
  O         7.3913462369        0.7894639034       14.9151456525
  O        10.2397092246        3.4934551400       10.9709226674
  O        10.2397092499        0.7028874028       10.9709226069
  O         6.1903830601        4.8992298173       13.1760681456
 Al         2.0052293141       14.6871982649        9.0635915435
 Al         4.7040447419       10.4908558864       12.0602454770
 Al         4.7711867176       14.6871982684        9.0558098701
 Al         3.2776063996       14.6871985862       14.0470589508
 Al         1.9086604406        9.0227959589       12.9771434436
 Al         0.4943375668       13.2503008657       14.9875890693
  O         4.7460871892       14.6871982438       15.0857373318
  O         3.2786208854       10.4908560640       13.2010240695
  O         1.8675633523       14.6871982456       15.2068240667
  O         0.6028869855       10.4908561424       13.0955706953
  O         4.7864509975       11.7987790025       15.2851922433
  O         3.2323972359       16.0913156930       12.9899587724
  O         1.8335980537       11.7995635610       14.9151455725
  O         0.6326351682       16.0824823502       13.1760681460
 Al         3.3093573837       10.4908559346       15.0834001158
 Al         0.6105433570       14.6871985886       12.0867463326
 Al         0.5434019925       10.4908559412       15.0911894986
 Al         2.0369809344       10.4908559050       10.0999324691
 Al         3.4059346482       13.2191301968       11.1698478304
 Al         3.4059344978       16.1552664359       11.1698481887
 Al         1.9086603731       11.9589242775       12.9771435015
 Al         4.8202503071        9.0539582090        9.1594014040
 Al         4.8202502903       11.9277536280        9.1594013903
 Al         0.4943376312       16.1240958218       14.9875887542
  O         0.5685076981       10.4908559436        9.0612531157
  O         2.0359671044       14.6871982136       10.9459744480
  O         3.4470246278       10.4908559431        8.9401667561
  O         4.7117002565       14.6871982151       11.0514200710
  O         0.5281441341       15.9951213521        8.8617991934
  O         0.5281441399       13.3792751564        8.8617991988
  O         4.7864510053        9.1829329723       15.2851922977
  O         2.0821908827       11.8949729894       11.1570320192
  O         2.0821908794        9.0867390889       11.1570318797
  O         3.2323974533       13.2830810883       12.9899587893
  O         3.4809897016       15.9959060661        9.2318455116
  O         3.4809897263       13.3784904447        9.2318455150
  O         1.8335980858        9.1821485880       14.9151456554
  O         4.6819610776       11.8861398262       10.9709226675
  O         4.6819611040        9.0955720891       10.9709226073
  O         0.6326349141       13.2919145046       13.1760681452
 Al         7.5629774210       14.6871982652        9.0635915443
 Al        10.2617928404       10.4908558881       12.0602454790
 Al        10.3289348176       14.6871982646        9.0558098708
 Al         8.8353545088       14.6871985904       14.0470589558
 Al         7.4664085435        9.0227959612       12.9771434440
 Al         6.0520856778       13.2503008648       14.9875890700
  O        10.3038352923       14.6871982406       15.0857373347
  O         8.8363689918       10.4908560604       13.2010240699
  O         7.4253114554       14.6871982447       15.2068240674
  O         6.1606350882       10.4908561441       13.0955706970
  O        10.3441990998       11.7987790018       15.2851922428
  O         8.7901453378       16.0913156927       12.9899587723
  O         7.3913461573       11.7995635604       14.9151455720
  O         6.1903832693       16.0824823499       13.1760681437
 Al         8.8671054814       10.4908559350       15.0834001133
 Al         6.1682914634       14.6871985838       12.0867463359
 Al         6.1011500976       10.4908559407       15.0911895016
 Al         7.5947290339       10.4908559059       10.0999324685
 Al         8.9636827534       13.2191301993       11.1698478319
 Al         8.9636826031       16.1552664300       11.1698481896
 Al         7.4664084785       11.9589242770       12.9771435010
 Al        10.3779984085        9.0539582087        9.1594014043
 Al        10.3779983900       11.9277536267        9.1594013904
 Al         6.0520857406       16.1240958195       14.9875887580
  O         6.1262558011       10.4908559426        9.0612531161
  O         7.5937152073       14.6871982157       10.9459744471
  O         9.0047727306       10.4908559420        8.9401667547
  O        10.2694483608       14.6871982160       11.0514200695
  O         6.0858922380       15.9951213521        8.8617991946
  O         6.0858922440       13.3792751537        8.8617991993
  O        10.3441991087        9.1829329734       15.2851922967
  O         7.6399389811       11.8949729905       11.1570320186
  O         7.6399389839        9.0867390882       11.1570318792
  O         8.7901455573       13.2830810886       12.9899587903
  O         9.0387378038       15.9959060676        9.2318455116
  O         9.0387378307       13.3784904439        9.2318455135
  O         7.3913461904        9.1821485877       14.9151456547
  O        10.2397091811       11.8861398255       10.9709226673
  O        10.2397092070        9.0955720893       10.9709226070
  O         6.1903830153       13.2919145053       13.1760681459
     320
 i =        2, E =     -3367.4070400515
 Al         2.0816757746        6.2759804782        1.0130403612
 Al         4.7730749224        2.0919934602        4.0064402842
 Al         4.8372095414        6.2759804693        1.0055022765
 Al         3.3515657090        6.2759811384        5.9873073557
 Al         1.9847046628        0.6296552590        4.9212051845
 Al         0.5764781242        4.8404023446        6.9251762377
  O         4.8163200026        6.2759804311        7.0260918579
  O         3.3490395173        2.0919938230        5.1426696001
  O         1.9413928193        6.2759804312        7.1464383011
  O         0.6857098905        2.0919940258        5.0368023240
  O         4.8524692326        3.3947832515        7.2206831288
  O         3.3072001455        7.6796869803        4.9300062545
  O         1.9114547403        3.3967571616        6.8537086093
  O         0.7086514743        7.6704871967        5.1158960808
 Al         3.3802753133        2.0919935559        7.0194410122
 Al         0.6888788397        6.2759811643        4.0260408883
 Al         0.6247454333        2.0919936017        7.0269834422
 Al         2.1103866370        2.0919935304        2.0451731488
 Al         3.4772520783        4.8136369375        3.1112750149
 Al         3.4772517441        7.7383242217        3.1112757078
 Al         1.9847045118        3.5543375442        4.9212053282
 Al         4.8854752042        0.6564146910        1.1073024372
 Al         4.8854751625        3.5275722676        1.1073024286
 Al         0.5764782709        7.7115589051        6.9251756020
  O         0.6456362857        2.0919935438        1.0063865834
  O         2.1129141343        6.2759803651        2.8898141289
  O         3.5205606977        2.0919935431        0.8860411542
  O         4.7762424592        6.2759803770        2.9956772097
  O         0.6094874871        7.5787701505        0.8117975314
  O         0.6094875067        4.9731907205        0.8117975589
  O         4.8524692496        0.7892040078        7.2206832139
  O         2.1547538815        3.4956991875        3.1024732719
  O         2.1547538805        0.6882883004        3.1024730099
  O         3.3072006952        4.8722746683        4.9300062922
  O         3.5504984817        7.5807443959        1.1787713502
  O         3.5504985367        4.9712164881        1.1787713385
  O         1.9114548328        0.7872305305        6.8537087872
  O         4.7533078651        3.4864996551        2.9165833002
  O         4.7533079085        0.6974874681        2.9165831913
  O         0.7086508452        4.8814746209        5.1158961092
 Al         7.6220740986        6.2759804672        1.0130403563
 Al        10.3134732471        2.0919934601        4.0064402844
 Al        10.3776078692        6.2759804686        1.0055022672
 Al         8.8919640386        6.2759811370        5.9873073658
 Al         7.5251029895        0.6296552492        4.9212051815
 Al         6.1168764589        4.8404023326        6.9251762461
  O        10.3567183298        6.2759804285        7.0260918587
  O         8.8894378495        2.0919938226        5.1426695981
  O         7.4817911458        6.2759804322        7.1464383013
  O         6.2261082160        2.0919940273        5.0368023290
  O        10.3928675566        3.3947832543        7.2206831264
  O         8.8475984742        7.6796869806        4.9300062575
  O         7.4518530698        3.3967571595        6.8537086067
  O         6.2490498019        7.6704871996        5.1158960788
 Al         8.9206736287        2.0919935565        7.0194410079
 Al         6.2292771706        6.2759811629        4.0260408971
 Al         6.1651437528        2.0919936060        7.0269834482
 Al         7.6507849605        2.0919935288        2.0451731445
 Al         9.0176504033        4.8136369406        3.1112750138
 Al         9.0176500754        7.7383242169        3.1112757102
 Al         7.5251028452        3.5543375481        4.9212053269
 Al        10.4258735280        0.6564146844        1.1073024348
 Al        10.4258734840        3.5275722541        1.1073024300
 Al         6.1168766045        7.7115589092        6.9251756023
  O         6.1860346157        2.0919935436        1.0063865852
  O         7.6533124610        6.2759803655        2.8898141290
  O         9.0609590236        2.0919935448        0.8860411512
  O        10.3166407874        6.2759803770        2.9956772092
  O         6.1498858186        7.5787701571        0.8117975316
  O         6.1498858301        4.9731907223        0.8117975596
  O        10.3928675705        0.7892040038        7.2206832103
  O         7.6951522052        3.4956991854        3.1024732662
  O         7.6951522068        0.6882882994        3.1024730108
  O         8.8475990263        4.8722746715        4.9300062935
  O         9.0908968048        7.5807443979        1.1787713500
  O         9.0908968660        4.9712164885        1.1787713402
  O         7.4518531621        0.7872305319        6.8537087869
  O        10.2937061887        3.4864996535        2.9165832972
  O        10.2937062365        0.6974874662        2.9165831894
  O         6.2490491717        4.8814746218        5.1158961065
 Al         2.0816756668       14.6439544066        1.0130403644
 Al         4.7730748122       10.4599673882        4.0064402861
 Al         4.8372094356       14.6439543958        1.0055022822
 Al         3.3515655997       14.6439550643        5.9873073547
 Al         1.9847045552        8.9976291798        4.9212051829
 Al         0.5764780111       13.2083762734        6.9251762379
  O         4.8163198933       14.6439543537        7.0260918559
  O         3.3490394098       10.4599677484        5.1426696026
  O         1.9413927087       14.6439543557        7.1464382998
  O         0.6857097833       10.4599679499        5.0368023274
  O         4.8524691228       11.7627571764        7.2206831283
  O         3.3072000398       16.0476609044        4.9300062552
  O         1.9114546308       11.7647310851        6.8537086096
  O         0.7086513643       16.0384611189        5.1158960840
 Al         3.3802752007       10.4599674810        7.0194410174
 Al         0.6888787325       14.6439550862        4.0260408896
 Al         0.6247453256       10.4599675294        7.0269834467
 Al         2.1103865269       10.4599674546        2.0451731564
 Al         3.4772519708       13.1816108605        3.1112750123
 Al         3.4772516356       16.1062981408        3.1112757157
 Al         1.9847044055       11.9223114731        4.9212053283
 Al         4.8854751019        9.0243886127        1.1073024309
 Al         4.8854750571       11.8955461910        1.1073024289
 Al         0.5764781603       16.0795328294        6.9251756048
  O         0.6456361776       10.4599674687        1.0063865815
  O         2.1129140247       14.6439542932        2.8898141315
  O         3.5205605871       10.4599674680        0.8860411560
  O         4.7762423517       14.6439543016        2.9956772138
  O         0.6094873758       15.9467440743        0.8117975279
  O         0.6094873982       13.3411646419        0.8117975604
  O         4.8524691404        9.1571779319        7.2206832186
  O         2.1547537736       11.8636731138        3.1024732720
  O         2.1547537728        9.0562622222        3.1024730114
  O         3.3072005870       13.2402485938        4.9300062925
  O         3.5504983735       15.9487183232        1.1787713507
  O         3.5504984267       13.3391904121        1.1787713366
  O         1.9114547210        9.1552044536        6.8537087859
  O         4.7533077551       11.8544735792        2.9165832987
  O         4.7533077994        9.0654613889        2.9165831923
  O         0.7086507372       13.2494485468        5.1158961103
 Al         7.6220739926       14.6439543960        1.0130403615
 Al        10.3134731356       10.4599673886        4.0064402874
 Al        10.3776077605       14.6439543969        1.0055022686
 Al         8.8919639287       14.6439550632        5.9873073613
 Al         7.5251028849        8.9976291750        4.9212051793
 Al         6.1168763494       13.2083762631        6.9251762467
  O        10.3567182212       14.6439543545        7.0260918586
  O         8.8894377397       10.4599677452        5.1426695997
  O         7.4817910375       14.6439543543        7.1464382997
  O         6.2261081093       10.4599679504        5.0368023314
  O        10.3928674488       11.7627571768        7.2206831265
  O         8.8475983677       16.0476609048        4.9300062566
  O         7.4518529585       11.7647310825        6.8537086072
  O         6.2490496920       16.0384611216        5.1158960812
 Al         8.9206735204       10.4599674854        7.0194410135
 Al         6.2292770633       14.6439550844        4.0260408986
 Al         6.1651436452       10.4599675331        7.0269834528
 Al         7.6507848502       10.4599674529        2.0451731522
 Al         9.0176502924       13.1816108637        3.1112750140
 Al         9.0176499639       16.1062981388        3.1112757218